 Gaussian 09, Revision D.01,
 Gaussian 09:  ES64L-G09RevD.01 24-Apr-2013

 --------------------------------------------------------
 # m062x/def2tzvp int=ultrafine scrf=(solvent=chloroform)
 --------------------------------------------------------

 ------------
 AT3_1ginp008
 ------------
 Symbolic Z-matrix:
 Charge =  0 Multiplicity = 1

                         Standard orientation:
 ---------------------------------------------------------------------
 Center     Atomic      Atomic             Coordinates (Angstroms)
 Number     Number       Type             X           Y           Z
 ---------------------------------------------------------------------
      1          6           0        0.257045   -2.511624   -1.474527
      2          6           0        1.562173   -1.739388   -1.243858
      3          6           0        1.372915   -0.341976   -0.620849
      4          6           0        2.639466    0.546657   -0.779877
      5          6           0        3.848254    0.006077    0.009690
      6          8           0        3.661351    0.067315    1.418217
      7          7           0        0.983732   -0.490424    0.810575
      8          6           0       -0.046009    0.430514    1.323140
      9          6           0       -3.932040    0.202975   -0.619445
     10          6           0       -3.161590    1.356917   -0.760200
     11          6           0       -1.920247    1.406274   -0.134845
     12          6           0       -1.398077    0.362819    0.631250
     13          6           0       -2.215559   -0.765177    0.728472
     14          6           0       -3.461297   -0.878515    0.129082
     15          1           0       -4.903299    0.142849   -1.098923
     16          1           0       -3.502571    2.207411   -1.339053
     17          1           0       -4.037499   -1.788221    0.251276
     18          9           0       -1.175831    2.530191   -0.277802
     19          9           0       -1.739046   -1.818203    1.445053
     20          1           0       -0.408091   -1.965609   -2.152189
     21          1           0        0.462150   -3.488873   -1.922466
     22          1           0       -0.294763   -2.690239   -0.545878
     23          1           0        2.232182   -2.331551   -0.607088
     24          1           0        2.078942   -1.621625   -2.203064
     25          1           0        2.906004    0.494178   -1.845436
     26          1           0        4.733281    0.610259   -0.227012
     27          1           0        4.074801   -1.022919   -0.314623
     28          1           0        2.732362   -0.223828    1.547852
     29          1           0       -0.181879    0.198122    2.384115
     30          1           0        0.325720    1.452426    1.264462
     31          1           0        0.560195    0.153254   -1.176692
     32          6           0        2.390083    2.023373   -0.434635
     33          1           0        2.331331    2.165668    0.647615
     34          1           0        3.216943    2.643772   -0.797053
     35          1           0        1.464111    2.396170   -0.883857
     36          1           0        0.656347   -1.438234    0.972600
 ---------------------------------------------------------------------

 SCF Done:  E(RM062X) =  -836.462766807     A.U. after   13 cycles

 The electronic state is 1-A.
 Alpha  occ. eigenvalues --  -25.27340 -25.27024 -19.60056 -14.75133 -10.64608
 Alpha  occ. eigenvalues --  -10.64583 -10.58196 -10.57183 -10.57172 -10.57089
 Alpha  occ. eigenvalues --  -10.56864 -10.56076 -10.56032 -10.53766 -10.53739
 Alpha  occ. eigenvalues --  -10.52780 -10.51913  -1.38443  -1.38260  -1.12272
 Alpha  occ. eigenvalues --   -1.02804  -0.98533  -0.90522  -0.87560  -0.86362
 Alpha  occ. eigenvalues --   -0.85812  -0.79056  -0.76143  -0.74823  -0.72985
 Alpha  occ. eigenvalues --   -0.70823  -0.68419  -0.65662  -0.64550  -0.62332
 Alpha  occ. eigenvalues --   -0.59112  -0.58382  -0.57722  -0.57641  -0.57365
 Alpha  occ. eigenvalues --   -0.55279  -0.54736  -0.53858  -0.52317  -0.51790
 Alpha  occ. eigenvalues --   -0.50590  -0.48648  -0.48197  -0.47564  -0.46944
 Alpha  occ. eigenvalues --   -0.46331  -0.45570  -0.44589  -0.44073  -0.43460
 Alpha  occ. eigenvalues --   -0.43223  -0.41510  -0.40475  -0.38716  -0.38112
 Alpha  occ. eigenvalues --   -0.37899  -0.33259  -0.32259  -0.31643  -0.30391
 Alpha virt. eigenvalues --   -0.00014   0.01426   0.05938   0.07609   0.08343
 Alpha virt. eigenvalues --    0.08671   0.08910   0.10824   0.11535   0.11610
 Alpha virt. eigenvalues --    0.11993   0.12164   0.12790   0.14103   0.14759

 Mulliken charges:
               1
     1  C   -0.450965
     2  C   -0.333043
     3  C   -0.028829
     4  C   -0.121280
     5  C   -0.105083
     6  O   -0.532542
     7  N   -0.482286
     8  C   -0.311730
     9  C   -0.122994
    10  C   -0.228989
    11  C    0.283528
    12  C   -0.025356
    13  C    0.233511
    14  C   -0.221424
    15  H    0.173645
    16  H    0.174564
    17  H    0.175065
    18  F   -0.214143
    19  F   -0.219941
    20  H    0.151530
    21  H    0.159849
    22  H    0.142171
    23  H    0.170670
    24  H    0.153552
    25  H    0.148810
    26  H    0.135143
    27  H    0.132498
    28  H    0.361600
    29  H    0.195135
    30  H    0.206174
    31  H    0.172370
    32  C   -0.488188
    33  H    0.154306
    34  H    0.157952
    35  H    0.159310
    36  H    0.245408
 Sum of Mulliken charges =   0.00000

 Dipole moment (field-independent basis, Debye):
    X=             -4.7046    Y=             -1.0686    Z=             -3.1068  Tot=              5.7383
 Quadrupole moment (field-independent basis, Debye-Ang):
   XX=           -103.9954   YY=           -103.2870   ZZ=           -104.5414
   XY=             -1.2905   XZ=             -6.9369   YZ=              0.0562

 Normal termination of Gaussian 09 at Wed Jun 26 12:25:28 2019.
