 Gaussian 09, Revision D.01,
 Gaussian 09:  ES64L-G09RevD.01 24-Apr-2013

 --------------------------------------------------------
 # m062x/def2tzvp int=ultrafine scrf=(solvent=chloroform)
 --------------------------------------------------------

 ------------
 AT3_1ginp004
 ------------
 Symbolic Z-matrix:
 Charge =  0 Multiplicity = 1

                         Standard orientation:
 ---------------------------------------------------------------------
 Center     Atomic      Atomic             Coordinates (Angstroms)
 Number     Number       Type             X           Y           Z
 ---------------------------------------------------------------------
      1          6           0        1.879676    2.717636    1.110429
      2          6           0        1.414298    1.816545   -0.039667
      3          6           0        1.290748    0.325974    0.329872
      4          6           0        2.596465   -0.288882    0.907267
      5          6           0        3.788370   -0.188415   -0.064407
      6          8           0        3.607476   -0.933611   -1.262743
      7          7           0        0.883351   -0.468441   -0.857368
      8          6           0       -0.382050   -0.108927   -1.520198
      9          6           0       -3.934709   -0.236499    0.988739
     10          6           0       -3.522667    0.980538    0.446188
     11          6           0       -2.383026    0.998828   -0.350337
     12          6           0       -1.621885   -0.134334   -0.640333
     13          6           0       -2.086059   -1.320429   -0.066425
     14          6           0       -3.214348   -1.406302    0.736445
     15          1           0       -4.821024   -0.274965    1.613070
     16          1           0       -4.063762    1.902128    0.626746
     17          1           0       -3.512266   -2.365027    1.144732
     18          9           0       -1.989244    2.186001   -0.876445
     19          9           0       -1.377759   -2.451953   -0.317507
     20          1           0        2.919304    2.529196    1.394278
     21          1           0        1.805548    3.770931    0.822901
     22          1           0        1.259330    2.574924    2.002789
     23          1           0        0.434006    2.173339   -0.369704
     24          1           0        2.085337    1.926155   -0.900535
     25          1           0        2.854950    0.312880    1.787530
     26          1           0        4.685126   -0.586098    0.426813
     27          1           0        3.995709    0.870493   -0.287686
     28          1           0        2.687480   -0.742406   -1.540721
     29          1           0       -0.289650    0.876822   -1.975374
     30          1           0       -0.517486   -0.824062   -2.337749
     31          1           0        0.525635    0.254644    1.124612
     32          6           0        2.397998   -1.737047    1.386634
     33          1           0        1.497492   -1.839142    2.002327
     34          1           0        2.326304   -2.433485    0.545640
     35          1           0        3.253108   -2.057733    1.990478
     36          1           0        0.797750   -1.439174   -0.566302
 ---------------------------------------------------------------------

 SCF Done:  E(RM062X) =  -836.462854654     A.U. after   12 cycles

 The electronic state is 1-A.
 Alpha  occ. eigenvalues --  -25.27278 -25.27060 -19.60450 -14.75004 -10.64609
 Alpha  occ. eigenvalues --  -10.64572 -10.58170 -10.57325 -10.57182 -10.57130
 Alpha  occ. eigenvalues --  -10.56845 -10.56067 -10.56034 -10.54092 -10.53292
 Alpha  occ. eigenvalues --  -10.52606 -10.52428  -1.38438  -1.38279  -1.12597
 Alpha  occ. eigenvalues --   -1.02850  -0.98532  -0.90657  -0.87580  -0.86355
 Alpha  occ. eigenvalues --   -0.85652  -0.79172  -0.76537  -0.74654  -0.72959
 Alpha  occ. eigenvalues --   -0.71092  -0.68737  -0.65643  -0.63446  -0.62523
 Alpha  occ. eigenvalues --   -0.59108  -0.58135  -0.57752  -0.57535  -0.57138
 Alpha  occ. eigenvalues --   -0.55720  -0.54864  -0.54703  -0.52546  -0.51608
 Alpha  occ. eigenvalues --   -0.50584  -0.49467  -0.48256  -0.47448  -0.47295
 Alpha  occ. eigenvalues --   -0.45825  -0.44742  -0.44372  -0.44102  -0.43539
 Alpha  occ. eigenvalues --   -0.42912  -0.42402  -0.40553  -0.39065  -0.38420
 Alpha  occ. eigenvalues --   -0.36935  -0.33736  -0.32211  -0.31630  -0.30522
 Alpha virt. eigenvalues --    0.00052   0.01469   0.05670   0.07228   0.07891
 Alpha virt. eigenvalues --    0.08666   0.09118   0.11355   0.11552   0.11843
 Alpha virt. eigenvalues --    0.12448   0.12610   0.13172   0.13904   0.14142

 Mulliken charges:
               1
     1  C   -0.458245
     2  C   -0.311402
     3  C   -0.028628
     4  C   -0.152148
     5  C   -0.105101
     6  O   -0.530087
     7  N   -0.480456
     8  C   -0.351528
     9  C   -0.120525
    10  C   -0.235667
    11  C    0.292886
    12  C   -0.065866
    13  C    0.294204
    14  C   -0.241315
    15  H    0.173757
    16  H    0.174464
    17  H    0.174570
    18  F   -0.217135
    19  F   -0.219482
    20  H    0.149808
    21  H    0.154865
    22  H    0.152360
    23  H    0.150323
    24  H    0.176189
    25  H    0.167268
    26  H    0.137250
    27  H    0.139004
    28  H    0.355829
    29  H    0.208038
    30  H    0.198280
    31  H    0.177992
    32  C   -0.491846
    33  H    0.157491
    34  H    0.159756
    35  H    0.157880
    36  H    0.257218
 Sum of Mulliken charges =   0.00000

 Dipole moment (field-independent basis, Debye):
    X=             -4.2912    Y=              1.1214    Z=              2.9153  Tot=              5.3076
 Quadrupole moment (field-independent basis, Debye-Ang):
   XX=           -103.3255   YY=           -105.1263   ZZ=           -103.0247
   XY=              6.8761   XZ=              3.6296   YZ=             -2.2205

 Normal termination of Gaussian 09 at Wed Jun 26 12:24:04 2019.
