 Gaussian 09, Revision D.01,
 Gaussian 09:  ES64L-G09RevD.01 24-Apr-2013

 --------------------------------------------------------
 # m062x/def2tzvp int=ultrafine scrf=(solvent=chloroform)
 --------------------------------------------------------

 ------------
 AT3_1ginp014
 ------------
 Symbolic Z-matrix:
 Charge =  0 Multiplicity = 1

                         Standard orientation:
 ---------------------------------------------------------------------
 Center     Atomic      Atomic             Coordinates (Angstroms)
 Number     Number       Type             X           Y           Z
 ---------------------------------------------------------------------
      1          6           0        2.079056    2.744735   -0.023581
      2          6           0        2.192719    1.715026    1.107209
      3          6           0        1.894333    0.250300    0.695872
      4          6           0        2.926563   -0.344448   -0.297774
      5          6           0        2.665678   -1.840539   -0.505932
      6          8           0        3.511112   -2.305604   -1.561844
      7          7           0        0.542423    0.045568    0.142115
      8          6           0       -0.562883    0.370069    1.050448
      9          6           0       -4.376699   -0.378435   -0.878590
     10          6           0       -3.612654    0.730231   -1.248740
     11          6           0       -2.399686    0.932898   -0.605331
     12          6           0       -1.895521    0.096572    0.392247
     13          6           0       -2.699377   -0.997662    0.714483
     14          6           0       -3.925107   -1.253493    0.109448
     15          1           0       -5.329333   -0.561221   -1.364486
     16          1           0       -3.938233    1.424151   -2.014907
     17          1           0       -4.499964   -2.120578    0.413488
     18          9           0       -1.643425    2.003612   -0.964314
     19          9           0       -2.267821   -1.847871    1.674676
     20          1           0        1.070162    2.765575   -0.450168
     21          1           0        2.293165    3.751190    0.349514
     22          1           0        2.781500    2.540508   -0.838705
     23          1           0        3.191269    1.763236    1.554258
     24          1           0        1.502581    1.994834    1.912089
     25          1           0        2.777029    0.136113   -1.276056
     26          1           0        1.608520   -1.995709   -0.746568
     27          1           0        2.880267   -2.379861    0.432482
     28          1           0        3.333350   -3.247241   -1.681687
     29          1           0       -0.469178   -0.258213    1.940395
     30          1           0       -0.560796    1.416856    1.394030
     31          1           0        1.942074   -0.353027    1.615736
     32          6           0        4.383265   -0.116533    0.132150
     33          1           0        4.549400   -0.471682    1.157011
     34          1           0        5.052069   -0.673643   -0.528022
     35          1           0        4.670073    0.937502    0.090661
     36          1           0        0.443267    0.603053   -0.703829
 ---------------------------------------------------------------------

 SCF Done:  E(RM062X) =  -836.456340840     A.U. after   12 cycles

 The electronic state is 1-A.
 Alpha  occ. eigenvalues --  -25.26995 -25.26695 -19.62117 -14.73570 -10.64270
 Alpha  occ. eigenvalues --  -10.64253 -10.57585 -10.57181 -10.56958 -10.56658
 Alpha  occ. eigenvalues --  -10.56555 -10.55782 -10.55728 -10.53677 -10.52927
 Alpha  occ. eigenvalues --  -10.52351 -10.51860  -1.38124  -1.38010  -1.13740
 Alpha  occ. eigenvalues --   -1.02217  -0.98249  -0.90547  -0.87191  -0.86058
 Alpha  occ. eigenvalues --   -0.85074  -0.78691  -0.76093  -0.74565  -0.72721
 Alpha  occ. eigenvalues --   -0.70743  -0.67591  -0.65357  -0.63870  -0.62094
 Alpha  occ. eigenvalues --   -0.59130  -0.58535  -0.57408  -0.57220  -0.57192
 Alpha  occ. eigenvalues --   -0.55157  -0.54458  -0.53896  -0.53428  -0.51064
 Alpha  occ. eigenvalues --   -0.49834  -0.49073  -0.47956  -0.47372  -0.47034
 Alpha  occ. eigenvalues --   -0.46029  -0.44615  -0.44096  -0.43952  -0.43098
 Alpha  occ. eigenvalues --   -0.41785  -0.40978  -0.40462  -0.39320  -0.37809
 Alpha  occ. eigenvalues --   -0.37204  -0.34761  -0.31788  -0.31309  -0.29222
 Alpha virt. eigenvalues --    0.00513   0.01823   0.06128   0.07281   0.07816
 Alpha virt. eigenvalues --    0.08271   0.09319   0.10265   0.11471   0.12038
 Alpha virt. eigenvalues --    0.12462   0.12712   0.13024   0.13833   0.14476

 Mulliken charges:
               1
     1  C   -0.467591
     2  C   -0.301869
     3  C   -0.115966
     4  C   -0.117510
     5  C   -0.092366
     6  O   -0.509261
     7  N   -0.385271
     8  C   -0.264003
     9  C   -0.114832
    10  C   -0.248923
    11  C    0.292875
    12  C   -0.077826
    13  C    0.303473
    14  C   -0.254509
    15  H    0.172278
    16  H    0.173503
    17  H    0.171314
    18  F   -0.215960
    19  F   -0.215227
    20  H    0.145417
    21  H    0.154254
    22  H    0.153529
    23  H    0.168437
    24  H    0.163042
    25  H    0.150259
    26  H    0.141197
    27  H    0.125310
    28  H    0.334325
    29  H    0.161643
    30  H    0.175822
    31  H    0.168136
    32  C   -0.483509
    33  H    0.152847
    34  H    0.164155
    35  H    0.154796
    36  H    0.238007
 Sum of Mulliken charges =   0.00000

 Dipole moment (field-independent basis, Debye):
    X=             -2.3697    Y=             -0.0114    Z=              0.4635  Tot=              2.4146
 Quadrupole moment (field-independent basis, Debye-Ang):
   XX=            -96.6800   YY=            -98.1282   ZZ=           -103.9223
   XY=              2.0217   XZ=             10.2794   YZ=              1.4807

 Normal termination of Gaussian 09 at Wed Jun 26 12:22:20 2019.
