 Gaussian 09, Revision D.01,
 Gaussian 09:  ES64L-G09RevD.01 24-Apr-2013

 --------------------------------------------------------
 # m062x/def2tzvp int=ultrafine scrf=(solvent=chloroform)
 --------------------------------------------------------

 ------------
 AT3_1ginp011
 ------------
 Symbolic Z-matrix:
 Charge =  0 Multiplicity = 1

                         Standard orientation:
 ---------------------------------------------------------------------
 Center     Atomic      Atomic             Coordinates (Angstroms)
 Number     Number       Type             X           Y           Z
 ---------------------------------------------------------------------
      1          6           0       -1.871031    3.044202    0.114014
      2          6           0       -2.504329    1.733949    0.598045
      3          6           0       -2.171477    0.515942   -0.291970
      4          6           0       -2.846322   -0.805974    0.164127
      5          6           0       -2.591012   -1.945960   -0.845109
      6          8           0       -1.231173   -2.321978   -0.972385
      7          7           0       -0.710047    0.305829   -0.505093
      8          6           0        0.121961    0.232567    0.712659
      9          6           0        4.306803   -0.234269   -0.327303
     10          6           0        3.673602    0.994688   -0.524714
     11          6           0        2.333792    1.101645   -0.180600
     12          6           0        1.578284    0.056003    0.352964
     13          6           0        2.262860   -1.149234    0.521688
     14          6           0        3.604888   -1.318593    0.199037
     15          1           0        5.353966   -0.346932   -0.587411
     16          1           0        4.194640    1.851990   -0.934519
     17          1           0        4.074335   -2.282077    0.359816
     18          9           0        1.703688    2.290123   -0.379184
     19          9           0        1.586997   -2.200592    1.034845
     20          1           0       -0.777431    3.011930    0.131814
     21          1           0       -2.179217    3.272813   -0.913049
     22          1           0       -2.184063    3.881397    0.745449
     23          1           0       -2.207052    1.533730    1.635754
     24          1           0       -3.591004    1.860791    0.616193
     25          1           0       -2.408485   -1.115845    1.123543
     26          1           0       -3.019993   -1.647970   -1.820710
     27          1           0       -3.141801   -2.837144   -0.520048
     28          1           0       -0.758402   -1.463792   -1.054281
     29          1           0        0.022641    1.123067    1.348457
     30          1           0       -0.200074   -0.627672    1.300786
     31          1           0       -2.562088    0.734760   -1.297136
     32          6           0       -4.362628   -0.647060    0.362729
     33          1           0       -4.843686   -0.253715   -0.541114
     34          1           0       -4.819828   -1.617040    0.584124
     35          1           0       -4.605715    0.023391    1.190195
     36          1           0       -0.355527    1.060132   -1.087488
 ---------------------------------------------------------------------

 SCF Done:  E(RM062X) =  -836.462350226     A.U. after   12 cycles

 The electronic state is 1-A.
 Alpha  occ. eigenvalues --  -25.27284 -25.26679 -19.59945 -14.75208 -10.64500
 Alpha  occ. eigenvalues --  -10.64448 -10.58138 -10.57372 -10.57265 -10.57153
 Alpha  occ. eigenvalues --  -10.56706 -10.55934 -10.55825 -10.54052 -10.53418
 Alpha  occ. eigenvalues --  -10.52693 -10.52670  -1.38391  -1.38054  -1.12314
 Alpha  occ. eigenvalues --   -1.02869  -0.98456  -0.90784  -0.87713  -0.86218
 Alpha  occ. eigenvalues --   -0.85622  -0.79311  -0.75513  -0.74958  -0.72896
 Alpha  occ. eigenvalues --   -0.71059  -0.68589  -0.65602  -0.63893  -0.62562
 Alpha  occ. eigenvalues --   -0.59399  -0.58393  -0.57720  -0.57413  -0.57269
 Alpha  occ. eigenvalues --   -0.55629  -0.54841  -0.54048  -0.52312  -0.51365
 Alpha  occ. eigenvalues --   -0.49414  -0.48926  -0.48620  -0.48152  -0.47336
 Alpha  occ. eigenvalues --   -0.45589  -0.45297  -0.44470  -0.43911  -0.43532
 Alpha  occ. eigenvalues --   -0.42475  -0.41661  -0.40486  -0.39894  -0.38766
 Alpha  occ. eigenvalues --   -0.37680  -0.33132  -0.32053  -0.31439  -0.30413
 Alpha virt. eigenvalues --    0.00265   0.01673   0.05929   0.07516   0.07674
 Alpha virt. eigenvalues --    0.08594   0.09355   0.11397   0.11563   0.11940
 Alpha virt. eigenvalues --    0.12221   0.12443   0.13136   0.13925   0.14371

 Mulliken charges:
               1
     1  C   -0.476897
     2  C   -0.295629
     3  C   -0.061219
     4  C   -0.143031
     5  C   -0.080951
     6  O   -0.524547
     7  N   -0.462997
     8  C   -0.369499
     9  C   -0.112120
    10  C   -0.246692
    11  C    0.275161
    12  C   -0.016190
    13  C    0.292307
    14  C   -0.245960
    15  H    0.173016
    16  H    0.174244
    17  H    0.173121
    18  F   -0.216336
    19  F   -0.207433
    20  H    0.152372
    21  H    0.152421
    22  H    0.154644
    23  H    0.171179
    24  H    0.156337
    25  H    0.144106
    26  H    0.122079
    27  H    0.130935
    28  H    0.361705
    29  H    0.204102
    30  H    0.202805
    31  H    0.180654
    32  C   -0.490089
    33  H    0.158779
    34  H    0.155035
    35  H    0.163080
    36  H    0.251511
 Sum of Mulliken charges =   0.00000

 Dipole moment (field-independent basis, Debye):
    X=              0.7305    Y=              3.5837    Z=              0.6703  Tot=              3.7184
 Quadrupole moment (field-independent basis, Debye-Ang):
   XX=            -81.1787   YY=           -112.5472   ZZ=           -103.9881
   XY=             -4.0089   XZ=             -3.5790   YZ=             -3.7271

 Normal termination of Gaussian 09 at Wed Jun 26 12:22:53 2019.
