 Gaussian 09, Revision D.01,
 Gaussian 09:  ES64L-G09RevD.01 24-Apr-2013

 --------------------------------------------------------
 # m062x/def2tzvp int=ultrafine scrf=(solvent=chloroform)
 --------------------------------------------------------

 ------------
 AT3_2ginp009
 ------------
 Symbolic Z-matrix:
 Charge =  0 Multiplicity = 1

                         Standard orientation:
 ---------------------------------------------------------------------
 Center     Atomic      Atomic             Coordinates (Angstroms)
 Number     Number       Type             X           Y           Z
 ---------------------------------------------------------------------
      1          6           0       -3.977728   -1.746672   -1.176480
      2          6           0       -2.585118   -1.680241   -0.537187
      3          6           0       -2.034721   -0.250357   -0.353204
      4          6           0       -2.922606    0.660214    0.536598
      5          6           0       -2.246016    2.026476    0.789440
      6          8           0       -1.592540    2.571436   -0.348220
      7          7           0       -0.639224   -0.192759    0.126469
      8          6           0        0.363162   -0.802436   -0.757960
      9          6           0        4.332849    0.450015    0.464041
     10          6           0        3.482252    1.355017   -0.175190
     11          6           0        2.222687    0.915157   -0.556442
     12          6           0        1.754359   -0.383589   -0.343762
     13          6           0        2.646096   -1.240037    0.303194
     14          6           0        3.920968   -0.859593    0.708900
     15          1           0        5.322770    0.769253    0.772510
     16          1           0        3.778697    2.377415   -0.378601
     17          1           0        4.561715   -1.580040    1.203912
     18          9           0        1.396448    1.788410   -1.185920
     19          9           0        2.247653   -2.511768    0.546190
     20          1           0       -4.747517   -1.305315   -0.535999
     21          1           0       -3.997197   -1.212072   -2.133238
     22          1           0       -4.267404   -2.784097   -1.371728
     23          1           0       -2.592087   -2.198165    0.430657
     24          1           0       -1.887289   -2.238328   -1.172593
     25          1           0       -3.840894    0.844086   -0.035543
     26          1           0       -1.540180    1.927265    1.627234
     27          1           0       -3.008317    2.752324    1.095009
     28          1           0       -0.799183    2.021817   -0.460153
     29          1           0        0.321034   -1.898143   -0.797147
     30          1           0        0.169080   -0.435809   -1.771915
     31          1           0       -2.015890    0.223562   -1.343936
     32          6           0       -3.321390    0.046513    1.888224
     33          1           0       -3.945085   -0.844066    1.773295
     34          1           0       -2.444284   -0.232975    2.484184
     35          1           0       -3.892783    0.770569    2.479864
     36          1           0       -0.565976   -0.612047    1.051208
 ---------------------------------------------------------------------

 SCF Done:  E(RM062X) =  -836.460738875     A.U. after   12 cycles

 The electronic state is 1-A.
 Alpha  occ. eigenvalues --  -25.27045 -25.26882 -19.61225 -14.74282 -10.64400
 Alpha  occ. eigenvalues --  -10.64349 -10.57951 -10.57235 -10.57043 -10.56639
 Alpha  occ. eigenvalues --  -10.56626 -10.55824 -10.55802 -10.53705 -10.53165
 Alpha  occ. eigenvalues --  -10.52663 -10.52507  -1.38208  -1.38154  -1.13210
 Alpha  occ. eigenvalues --   -1.02484  -0.98337  -0.90656  -0.87353  -0.86149
 Alpha  occ. eigenvalues --   -0.85408  -0.78931  -0.75776  -0.74563  -0.72823
 Alpha  occ. eigenvalues --   -0.70707  -0.69354  -0.65455  -0.63466  -0.62449
 Alpha  occ. eigenvalues --   -0.58820  -0.58528  -0.58011  -0.57418  -0.57267
 Alpha  occ. eigenvalues --   -0.55599  -0.54593  -0.53302  -0.52503  -0.51858
 Alpha  occ. eigenvalues --   -0.49486  -0.48639  -0.47830  -0.47705  -0.47193
 Alpha  occ. eigenvalues --   -0.46165  -0.45189  -0.44606  -0.43898  -0.43035
 Alpha  occ. eigenvalues --   -0.42615  -0.41467  -0.41002  -0.40255  -0.37856
 Alpha  occ. eigenvalues --   -0.36903  -0.33749  -0.31965  -0.31404  -0.29880
 Alpha virt. eigenvalues --    0.00280   0.01780   0.05950   0.07115   0.07506
 Alpha virt. eigenvalues --    0.08658   0.08979   0.11449   0.11609   0.11995
 Alpha virt. eigenvalues --    0.12303   0.12433   0.13077   0.14014   0.14634

 Mulliken charges:
               1
     1  C   -0.455829
     2  C   -0.280173
     3  C   -0.129499
     4  C   -0.137549
     5  C   -0.076997
     6  O   -0.502128
     7  N   -0.442429
     8  C   -0.263616
     9  C   -0.113817
    10  C   -0.247128
    11  C    0.281510
    12  C   -0.090132
    13  C    0.329145
    14  C   -0.252707
    15  H    0.172882
    16  H    0.175101
    17  H    0.172023
    18  F   -0.219689
    19  F   -0.216212
    20  H    0.149632
    21  H    0.150974
    22  H    0.152061
    23  H    0.159840
    24  H    0.151558
    25  H    0.155956
    26  H    0.134012
    27  H    0.142603
    28  H    0.328233
    29  H    0.157904
    30  H    0.200441
    31  H    0.194649
    32  C   -0.491221
    33  H    0.160506
    34  H    0.151727
    35  H    0.160277
    36  H    0.238094
 Sum of Mulliken charges =   0.00000

 Dipole moment (field-independent basis, Debye):
    X=              1.5446    Y=             -2.6693    Z=              1.3647  Tot=              3.3724
 Quadrupole moment (field-independent basis, Debye-Ang):
   XX=            -86.4659   YY=           -112.9809   ZZ=           -102.0605
   XY=              8.4142   XZ=              0.4139   YZ=              3.7987

 Normal termination of Gaussian 09 at Wed Jun 26 12:22:45 2019.
