 Gaussian 09, Revision D.01,
 Gaussian 09:  ES64L-G09RevD.01 24-Apr-2013

 --------------------------------------------------------
 # m062x/def2tzvp int=ultrafine scrf=(solvent=chloroform)
 --------------------------------------------------------

 ------------
 AT3_2ginp004
 ------------
 Symbolic Z-matrix:
 Charge =  0 Multiplicity = 1

                         Standard orientation:
 ---------------------------------------------------------------------
 Center     Atomic      Atomic             Coordinates (Angstroms)
 Number     Number       Type             X           Y           Z
 ---------------------------------------------------------------------
      1          6           0        3.032574    2.477222   -0.464592
      2          6           0        2.396969    1.580756    0.604545
      3          6           0        1.597764    0.383370    0.049218
      4          6           0        2.437097   -0.620774   -0.785262
      5          6           0        1.528823   -1.674291   -1.451168
      6          8           0        0.955618   -2.593222   -0.532689
      7          7           0        0.854502   -0.347906    1.109038
      8          6           0       -0.345199    0.327422    1.638801
      9          6           0       -3.670279    0.155667   -1.142672
     10          6           0       -3.330769   -0.972524   -0.393264
     11          6           0       -2.258230   -0.882672    0.483826
     12          6           0       -1.499487    0.276916    0.663827
     13          6           0       -1.881869    1.368050   -0.117610
     14          6           0       -2.945742    1.340510   -1.011954
     15          1           0       -4.504035    0.109322   -1.835328
     16          1           0       -3.876622   -1.904819   -0.478888
     17          1           0       -3.185880    2.227531   -1.586470
     18          9           0       -1.925933   -1.969595    1.216764
     19          9           0       -1.166206    2.513929   -0.002887
     20          1           0        3.504780    3.351793   -0.006017
     21          1           0        3.802632    1.953040   -1.039215
     22          1           0        2.278577    2.841191   -1.171784
     23          1           0        3.171274    1.215901    1.291812
     24          1           0        1.717621    2.192693    1.209648
     25          1           0        2.886650   -0.045873   -1.605883
     26          1           0        2.118842   -2.261492   -2.166025
     27          1           0        0.748013   -1.152872   -2.032769
     28          1           0        0.641360   -2.025740    0.204118
     29          1           0       -0.633744   -0.206198    2.548360
     30          1           0       -0.165275    1.373195    1.917601
     31          1           0        0.834270    0.785904   -0.629080
     32          6           0        3.570451   -1.293472    0.004689
     33          1           0        4.261348   -0.564597    0.438814
     34          1           0        3.175563   -1.919041    0.810281
     35          1           0        4.152058   -1.947497   -0.653475
     36          1           0        1.482753   -0.537417    1.887346
 ---------------------------------------------------------------------

 SCF Done:  E(RM062X) =  -836.463694825     A.U. after   12 cycles

 The electronic state is 1-A.
 Alpha  occ. eigenvalues --  -25.26997 -25.26749 -19.59943 -14.75051 -10.64435
 Alpha  occ. eigenvalues --  -10.64331 -10.58230 -10.57054 -10.57031 -10.57019
 Alpha  occ. eigenvalues --  -10.56654 -10.55829 -10.55755 -10.53822 -10.53379
 Alpha  occ. eigenvalues --  -10.52618 -10.52171  -1.38229  -1.38047  -1.12206
 Alpha  occ. eigenvalues --   -1.02790  -0.98334  -0.90582  -0.87508  -0.86119
 Alpha  occ. eigenvalues --   -0.85342  -0.79019  -0.76549  -0.74427  -0.72781
 Alpha  occ. eigenvalues --   -0.70439  -0.69029  -0.65364  -0.63993  -0.62158
 Alpha  occ. eigenvalues --   -0.59156  -0.57835  -0.57383  -0.57273  -0.56572
 Alpha  occ. eigenvalues --   -0.55458  -0.54714  -0.54347  -0.53079  -0.51663
 Alpha  occ. eigenvalues --   -0.49733  -0.48854  -0.48076  -0.47760  -0.46517
 Alpha  occ. eigenvalues --   -0.46299  -0.44865  -0.43964  -0.43654  -0.43449
 Alpha  occ. eigenvalues --   -0.42475  -0.42077  -0.41346  -0.38807  -0.38272
 Alpha  occ. eigenvalues --   -0.37640  -0.33215  -0.32012  -0.31354  -0.30141
 Alpha virt. eigenvalues --    0.00175   0.01766   0.05907   0.07170   0.07634
 Alpha virt. eigenvalues --    0.08785   0.09039   0.11047   0.11429   0.11898
 Alpha virt. eigenvalues --    0.12379   0.12570   0.13576   0.13763   0.14156

 Mulliken charges:
               1
     1  C   -0.454032
     2  C   -0.260527
     3  C   -0.115053
     4  C   -0.130318
     5  C   -0.087846
     6  O   -0.527840
     7  N   -0.476048
     8  C   -0.298286
     9  C   -0.122057
    10  C   -0.235565
    11  C    0.254127
    12  C   -0.038299
    13  C    0.291461
    14  C   -0.232066
    15  H    0.173011
    16  H    0.173397
    17  H    0.173267
    18  F   -0.209765
    19  F   -0.214242
    20  H    0.152215
    21  H    0.150457
    22  H    0.148204
    23  H    0.155681
    24  H    0.147246
    25  H    0.158384
    26  H    0.138393
    27  H    0.124946
    28  H    0.354866
    29  H    0.186402
    30  H    0.194752
    31  H    0.187553
    32  C   -0.476232
    33  H    0.151741
    34  H    0.154231
    35  H    0.154332
    36  H    0.253510
 Sum of Mulliken charges =   0.00000

 Dipole moment (field-independent basis, Debye):
    X=             -0.5615    Y=              3.6020    Z=              0.2179  Tot=              3.6520
 Quadrupole moment (field-independent basis, Debye-Ang):
   XX=            -89.5462   YY=           -116.8049   ZZ=            -96.3188
   XY=              2.9046   XZ=              6.6076   YZ=             -1.1718

 Normal termination of Gaussian 09 at Wed Jun 26 12:23:20 2019.
