 Gaussian 09, Revision D.01,
 Gaussian 09:  ES64L-G09RevD.01 24-Apr-2013

 --------------------------------------------------------
 # m062x/def2tzvp int=ultrafine scrf=(solvent=chloroform)
 --------------------------------------------------------

 ------------
 AT3_2ginp003
 ------------
 Symbolic Z-matrix:
 Charge =  0 Multiplicity = 1

                         Standard orientation:
 ---------------------------------------------------------------------
 Center     Atomic      Atomic             Coordinates (Angstroms)
 Number     Number       Type             X           Y           Z
 ---------------------------------------------------------------------
      1          6           0       -0.787830    2.592005    1.426916
      2          6           0       -1.894842    1.617405    1.001238
      3          6           0       -1.363270    0.293253    0.421043
      4          6           0       -2.405781   -0.858946    0.393822
      5          6           0       -3.656266   -0.518779   -0.435657
      6          8           0       -3.372640   -0.281120   -1.806711
      7          7           0       -0.867252    0.552593   -0.956576
      8          6           0        0.197268   -0.337124   -1.444942
      9          6           0        3.918894   -0.222366    0.804293
     10          6           0        3.201509   -1.415531    0.722781
     11          6           0        2.011953   -1.426715    0.002025
     12          6           0        1.493909   -0.307479   -0.651991
     13          6           0        2.257435    0.855449   -0.529892
     14          6           0        3.448660    0.933472    0.176454
     15          1           0        4.848734   -0.190477    1.362175
     16          1           0        3.543680   -2.324531    1.203772
     17          1           0        3.984718    1.874087    0.225606
     18          9           0        1.317314   -2.586867   -0.072371
     19          9           0        1.786959    1.978141   -1.137358
     20          1           0       -1.215589    3.531656    1.789654
     21          1           0       -0.183162    2.165649    2.234719
     22          1           0       -0.105432    2.840562    0.606672
     23          1           0       -2.524096    1.403775    1.870845
     24          1           0       -2.547277    2.093877    0.258518
     25          1           0       -1.920685   -1.709548   -0.104952
     26          1           0       -4.172141    0.344105    0.021411
     27          1           0       -4.358919   -1.360916   -0.385358
     28          1           0       -2.503742    0.178177   -1.805268
     29          1           0       -0.176284   -1.361631   -1.468184
     30          1           0        0.405823   -0.052090   -2.481360
     31          1           0       -0.533292   -0.039570    1.067925
     32          6           0       -2.791585   -1.321520    1.806001
     33          1           0       -3.389572   -0.572947    2.336913
     34          1           0       -3.385026   -2.240163    1.760843
     35          1           0       -1.903135   -1.528357    2.412103
     36          1           0       -0.531499    1.508936   -1.021302
 ---------------------------------------------------------------------

 SCF Done:  E(RM062X) =  -836.464042912     A.U. after   12 cycles

 The electronic state is 1-A.
 Alpha  occ. eigenvalues --  -25.27373 -25.27021 -19.60042 -14.75128 -10.64609
 Alpha  occ. eigenvalues --  -10.64602 -10.58261 -10.57211 -10.57204 -10.57137
 Alpha  occ. eigenvalues --  -10.56855 -10.56087 -10.56036 -10.53916 -10.53692
 Alpha  occ. eigenvalues --  -10.52821 -10.52642  -1.38469  -1.38311  -1.12278
 Alpha  occ. eigenvalues --   -1.03031  -0.98559  -0.90766  -0.87785  -0.86373
 Alpha  occ. eigenvalues --   -0.85799  -0.79087  -0.75694  -0.74819  -0.72993
 Alpha  occ. eigenvalues --   -0.70909  -0.69793  -0.65717  -0.63946  -0.62527
 Alpha  occ. eigenvalues --   -0.59027  -0.58305  -0.57719  -0.57523  -0.57165
 Alpha  occ. eigenvalues --   -0.56102  -0.54869  -0.54608  -0.52518  -0.51281
 Alpha  occ. eigenvalues --   -0.49877  -0.48615  -0.48343  -0.47891  -0.47462
 Alpha  occ. eigenvalues --   -0.46149  -0.45492  -0.44725  -0.44370  -0.43598
 Alpha  occ. eigenvalues --   -0.42966  -0.42045  -0.40276  -0.39448  -0.38413
 Alpha  occ. eigenvalues --   -0.37560  -0.33247  -0.32182  -0.31648  -0.30572
 Alpha virt. eigenvalues --    0.00035   0.01418   0.05877   0.07432   0.07556
 Alpha virt. eigenvalues --    0.08709   0.08964   0.10871   0.11581   0.11741
 Alpha virt. eigenvalues --    0.12246   0.12673   0.12834   0.13739   0.14302

 Mulliken charges:
               1
     1  C   -0.441178
     2  C   -0.328552
     3  C   -0.052461
     4  C   -0.146959
     5  C   -0.092125
     6  O   -0.534915
     7  N   -0.473692
     8  C   -0.292704
     9  C   -0.120166
    10  C   -0.239441
    11  C    0.309469
    12  C   -0.071526
    13  C    0.261756
    14  C   -0.234137
    15  H    0.173805
    16  H    0.173699
    17  H    0.175280
    18  F   -0.214817
    19  F   -0.222723
    20  H    0.157465
    21  H    0.151789
    22  H    0.137713
    23  H    0.155383
    24  H    0.172466
    25  H    0.146817
    26  H    0.133557
    27  H    0.132484
    28  H    0.364423
    29  H    0.200933
    30  H    0.197377
    31  H    0.183590
    32  C   -0.462922
    33  H    0.147767
    34  H    0.158915
    35  H    0.154559
    36  H    0.239073
 Sum of Mulliken charges =   0.00000

 Dipole moment (field-independent basis, Debye):
    X=              4.3810    Y=              0.9252    Z=              3.5698  Tot=              5.7265
 Quadrupole moment (field-independent basis, Debye-Ang):
   XX=           -102.0712   YY=           -102.6312   ZZ=           -106.9267
   XY=             -1.3424   XZ=             -6.8622   YZ=             -1.0352

 Normal termination of Gaussian 09 at Wed Jun 26 12:23:09 2019.
