 Gaussian 09, Revision D.01,
 Gaussian 09:  ES64L-G09RevD.01 24-Apr-2013

 --------------------------------------------------------
 # m062x/def2tzvp int=ultrafine scrf=(solvent=chloroform)
 --------------------------------------------------------

 ------------
 AT3_2ginp006
 ------------
 Symbolic Z-matrix:
 Charge =  0 Multiplicity = 1

                         Standard orientation:
 ---------------------------------------------------------------------
 Center     Atomic      Atomic             Coordinates (Angstroms)
 Number     Number       Type             X           Y           Z
 ---------------------------------------------------------------------
      1          6           0       -3.633157   -2.166349   -1.301056
      2          6           0       -2.290581   -1.899508   -0.610000
      3          6           0       -1.893842   -0.408983   -0.504976
      4          6           0       -2.886763    0.442394    0.325910
      5          6           0       -2.560443    1.931926    0.185666
      6          8           0       -3.639054    2.685174    0.746055
      7          7           0       -0.521557   -0.205859    0.001855
      8          6           0        0.543131   -0.536762   -0.953453
      9          6           0        4.444303    0.380494    0.713421
     10          6           0        3.729101   -0.724268    1.180029
     11          6           0        2.485796   -0.983461    0.619958
     12          6           0        1.904606   -0.207463   -0.384310
     13          6           0        2.662717    0.886287   -0.804705
     14          6           0        3.915237    1.196981   -0.286308
     15          1           0        5.419058    0.606357    1.132769
     16          1           0        4.114648   -1.373124    1.957820
     17          1           0        4.450543    2.060081   -0.664810
     18          9           0        1.776749   -2.049304    1.072536
     19          9           0        2.156608    1.680124   -1.777128
     20          1           0       -3.797291   -3.241226   -1.428665
     21          1           0       -4.477995   -1.772360   -0.727923
     22          1           0       -3.663881   -1.706955   -2.295835
     23          1           0       -2.295921   -2.344618    0.393513
     24          1           0       -1.503050   -2.421861   -1.166383
     25          1           0       -3.881688    0.306508   -0.118327
     26          1           0       -2.427996    2.180658   -0.879766
     27          1           0       -1.612826    2.151877    0.693816
     28          1           0       -3.355451    3.606817    0.797542
     29          1           0        0.546650   -1.594135   -1.264885
     30          1           0        0.387239    0.060547   -1.855241
     31          1           0       -1.901868    0.004110   -1.524656
     32          6           0       -2.967070    0.037873    1.805483
     33          1           0       -3.321914   -0.989340    1.933250
     34          1           0       -1.989254    0.123916    2.293467
     35          1           0       -3.657526    0.700811    2.332438
     36          1           0       -0.386565   -0.770796    0.837832
 ---------------------------------------------------------------------

 SCF Done:  E(RM062X) =  -836.455540353     A.U. after   12 cycles

 The electronic state is 1-A.
 Alpha  occ. eigenvalues --  -25.26959 -25.26690 -19.62138 -14.73631 -10.64260
 Alpha  occ. eigenvalues --  -10.64229 -10.57610 -10.57289 -10.56931 -10.56579
 Alpha  occ. eigenvalues --  -10.56550 -10.55769 -10.55719 -10.53451 -10.53031
 Alpha  occ. eigenvalues --  -10.52388 -10.51774  -1.38139  -1.38000  -1.13768
 Alpha  occ. eigenvalues --   -1.02159  -0.98232  -0.90528  -0.87112  -0.86040
 Alpha  occ. eigenvalues --   -0.85262  -0.78450  -0.76541  -0.73973  -0.72698
 Alpha  occ. eigenvalues --   -0.70420  -0.68522  -0.65363  -0.63713  -0.61939
 Alpha  occ. eigenvalues --   -0.59169  -0.58634  -0.57402  -0.57216  -0.57179
 Alpha  occ. eigenvalues --   -0.54821  -0.54529  -0.54277  -0.52412  -0.51826
 Alpha  occ. eigenvalues --   -0.50727  -0.48067  -0.47740  -0.47471  -0.46790
 Alpha  occ. eigenvalues --   -0.45603  -0.44654  -0.44109  -0.43893  -0.42978
 Alpha  occ. eigenvalues --   -0.42277  -0.41597  -0.40826  -0.38593  -0.37899
 Alpha  occ. eigenvalues --   -0.37217  -0.34704  -0.31780  -0.31291  -0.29298
 Alpha virt. eigenvalues --    0.00508   0.01834   0.06265   0.07282   0.07698
 Alpha virt. eigenvalues --    0.08205   0.09071   0.10064   0.11699   0.12035
 Alpha virt. eigenvalues --    0.12546   0.12828   0.13090   0.13903   0.14590

 Mulliken charges:
               1
     1  C   -0.455409
     2  C   -0.263165
     3  C   -0.162523
     4  C   -0.053683
     5  C   -0.103323
     6  O   -0.509639
     7  N   -0.400677
     8  C   -0.230155
     9  C   -0.114609
    10  C   -0.252587
    11  C    0.298423
    12  C   -0.085483
    13  C    0.301206
    14  C   -0.255050
    15  H    0.172582
    16  H    0.172863
    17  H    0.171658
    18  F   -0.218395
    19  F   -0.215852
    20  H    0.151168
    21  H    0.151840
    22  H    0.146353
    23  H    0.154401
    24  H    0.143914
    25  H    0.149072
    26  H    0.121461
    27  H    0.139745
    28  H    0.334912
    29  H    0.163697
    30  H    0.161682
    31  H    0.179372
    32  C   -0.497976
    33  H    0.152827
    34  H    0.148356
    35  H    0.163229
    36  H    0.239766
 Sum of Mulliken charges =   0.00000

 Dipole moment (field-independent basis, Debye):
    X=              2.6987    Y=             -0.3016    Z=             -0.1902  Tot=              2.7222
 Quadrupole moment (field-independent basis, Debye-Ang):
   XX=            -98.9019   YY=            -98.2289   ZZ=           -103.1206
   XY=              5.1926   XZ=              7.6748   YZ=              0.8325

 Normal termination of Gaussian 09 at Wed Jun 26 12:21:51 2019.
