 Gaussian 09, Revision D.01,
 Gaussian 09:  ES64L-G09RevD.01 24-Apr-2013

 --------------------------------------------------------
 # m062x/def2tzvp int=ultrafine scrf=(solvent=chloroform)
 --------------------------------------------------------

 ------------
 AT3_1ginp007
 ------------
 Symbolic Z-matrix:
 Charge =  0 Multiplicity = 1

                         Standard orientation:
 ---------------------------------------------------------------------
 Center     Atomic      Atomic             Coordinates (Angstroms)
 Number     Number       Type             X           Y           Z
 ---------------------------------------------------------------------
      1          6           0        1.587047    3.067182    0.054735
      2          6           0        2.452107    1.912841   -0.465704
      3          6           0        2.119397    0.523082    0.114218
      4          6           0        3.133337   -0.561100   -0.350329
      5          6           0        2.663684   -1.988615   -0.002862
      6          8           0        1.558322   -2.425755   -0.772751
      7          7           0        0.718817    0.121932   -0.211321
      8          6           0       -0.247627    0.291688    0.892318
      9          6           0       -4.285222   -0.414534   -0.516147
     10          6           0       -3.477628   -1.496145   -0.159979
     11          6           0       -2.189150   -1.237958    0.289651
     12          6           0       -1.657345    0.048149    0.413409
     13          6           0       -2.508325    1.087670    0.033259
     14          6           0       -3.806299    0.892724   -0.422767
     15          1           0       -5.294909   -0.592313   -0.870990
     16          1           0       -3.826719   -2.519944   -0.226532
     17          1           0       -4.412979    1.748214   -0.695810
     18          9           0       -1.400296   -2.280050    0.633961
     19          9           0       -2.038947    2.357451    0.117083
     20          1           0        0.525616    2.930104   -0.172996
     21          1           0        1.684056    3.176958    1.140756
     22          1           0        1.898059    4.012596   -0.400986
     23          1           0        2.366625    1.852470   -1.560525
     24          1           0        3.502164    2.143895   -0.260463
     25          1           0        3.203731   -0.514910   -1.447071
     26          1           0        2.450834   -2.041326    1.081631
     27          1           0        3.485503   -2.689764   -0.192805
     28          1           0        0.923533   -1.681245   -0.684528
     29          1           0       -0.001137   -0.440275    1.666970
     30          1           0       -0.195463    1.286517    1.351409
     31          1           0        2.184377    0.576255    1.210943
     32          6           0        4.530265   -0.327129    0.247806
     33          1           0        4.501996   -0.381554    1.343153
     34          1           0        5.230280   -1.092583   -0.102584
     35          1           0        4.948263    0.644936   -0.024867
     36          1           0        0.395625    0.650758   -1.018501
 ---------------------------------------------------------------------

 SCF Done:  E(RM062X) =  -836.460487450     A.U. after   12 cycles

 The electronic state is 1-A.
 Alpha  occ. eigenvalues --  -25.27129 -25.26796 -19.59707 -14.75109 -10.64600
 Alpha  occ. eigenvalues --  -10.64483 -10.58284 -10.57322 -10.57260 -10.57010
 Alpha  occ. eigenvalues --  -10.56777 -10.55937 -10.55870 -10.53743 -10.53633
 Alpha  occ. eigenvalues --  -10.52673 -10.52570  -1.38345  -1.38124  -1.12141
 Alpha  occ. eigenvalues --   -1.02829  -0.98470  -0.90844  -0.87612  -0.86249
 Alpha  occ. eigenvalues --   -0.85598  -0.79147  -0.75365  -0.74759  -0.72932
 Alpha  occ. eigenvalues --   -0.70741  -0.68482  -0.65830  -0.65066  -0.62743
 Alpha  occ. eigenvalues --   -0.58884  -0.58130  -0.57724  -0.57444  -0.57135
 Alpha  occ. eigenvalues --   -0.55082  -0.54429  -0.54252  -0.52766  -0.50144
 Alpha  occ. eigenvalues --   -0.49858  -0.49043  -0.48718  -0.48018  -0.47403
 Alpha  occ. eigenvalues --   -0.45242  -0.44873  -0.44629  -0.44534  -0.43741
 Alpha  occ. eigenvalues --   -0.42670  -0.41532  -0.40161  -0.39827  -0.38589
 Alpha  occ. eigenvalues --   -0.38075  -0.32974  -0.32154  -0.31473  -0.30092
 Alpha virt. eigenvalues --    0.00071   0.01649   0.06154   0.07334   0.07631
 Alpha virt. eigenvalues --    0.08757   0.09029   0.11246   0.11438   0.11683
 Alpha virt. eigenvalues --    0.12166   0.12561   0.13309   0.13689   0.14443

 Mulliken charges:
               1
     1  C   -0.456446
     2  C   -0.286846
     3  C   -0.106122
     4  C   -0.106703
     5  C   -0.081363
     6  O   -0.525615
     7  N   -0.466503
     8  C   -0.305685
     9  C   -0.110548
    10  C   -0.249152
    11  C    0.285543
    12  C   -0.060099
    13  C    0.302147
    14  C   -0.247635
    15  H    0.173326
    16  H    0.174133
    17  H    0.174323
    18  F   -0.204808
    19  F   -0.213713
    20  H    0.146768
    21  H    0.152644
    22  H    0.157257
    23  H    0.161454
    24  H    0.137659
    25  H    0.137768
    26  H    0.123719
    27  H    0.131092
    28  H    0.353844
    29  H    0.192932
    30  H    0.198257
    31  H    0.182862
    32  C   -0.473426
    33  H    0.151100
    34  H    0.155299
    35  H    0.149753
    36  H    0.252785
 Sum of Mulliken charges =   0.00000

 Dipole moment (field-independent basis, Debye):
    X=             -1.4665    Y=              3.6234    Z=              0.6692  Tot=              3.9658
 Quadrupole moment (field-independent basis, Debye-Ang):
   XX=            -83.5550   YY=           -113.7371   ZZ=           -103.4035
   XY=              7.4175   XZ=              5.8971   YZ=             -4.1310

 Normal termination of Gaussian 09 at Wed Jun 26 12:23:00 2019.
