 Gaussian 09, Revision D.01,
 Gaussian 09:  ES64L-G09RevD.01 24-Apr-2013

 --------------------------------------------------------
 # m062x/def2tzvp int=ultrafine scrf=(solvent=chloroform)
 --------------------------------------------------------

 ------------
 AT3_1ginp005
 ------------
 Symbolic Z-matrix:
 Charge =  0 Multiplicity = 1

                         Standard orientation:
 ---------------------------------------------------------------------
 Center     Atomic      Atomic             Coordinates (Angstroms)
 Number     Number       Type             X           Y           Z
 ---------------------------------------------------------------------
      1          6           0       -4.254834    1.941452   -0.062588
      2          6           0       -2.800614    1.692713    0.349652
      3          6           0       -2.092312    0.543416   -0.394350
      4          6           0       -2.787586   -0.838240   -0.242690
      5          6           0       -2.750469   -1.362997    1.206381
      6          8           0       -1.441811   -1.708029    1.639867
      7          7           0       -0.675831    0.475048    0.075025
      8          6           0        0.322484    0.396613   -1.009312
      9          6           0        4.307872   -0.102001    0.617209
     10          6           0        3.761801    1.177861    0.505556
     11          6           0        2.482706    1.301827   -0.020873
     12          6           0        1.713823    0.220499   -0.453562
     13          6           0        2.307765   -1.034589   -0.307304
     14          6           0        3.583291   -1.223415    0.210426
     15          1           0        5.304913   -0.226556    1.026290
     16          1           0        4.302592    2.063348    0.818561
     17          1           0        3.985740   -2.226475    0.290200
     18          9           0        1.936005    2.538723   -0.121647
     19          9           0        1.603614   -2.120430   -0.703542
     20          1           0       -4.914577    1.119420    0.229882
     21          1           0       -4.635526    2.850450    0.413262
     22          1           0       -4.343361    2.072228   -1.147008
     23          1           0       -2.221050    2.606375    0.161578
     24          1           0       -2.747725    1.516311    1.431626
     25          1           0       -3.844395   -0.688989   -0.500678
     26          1           0       -3.366328   -2.268874    1.274814
     27          1           0       -3.209156   -0.622356    1.883318
     28          1           0       -0.873115   -0.996709    1.271186
     29          1           0        0.082899   -0.462094   -1.635998
     30          1           0        0.296380    1.289196   -1.651879
     31          1           0       -2.104689    0.801646   -1.466327
     32          6           0       -2.223235   -1.890784   -1.210183
     33          1           0       -1.200827   -2.168730   -0.942558
     34          1           0       -2.827764   -2.803597   -1.174267
     35          1           0       -2.228653   -1.528069   -2.244068
     36          1           0       -0.470770    1.313596    0.614494
 ---------------------------------------------------------------------

 SCF Done:  E(RM062X) =  -836.460249210     A.U. after   12 cycles

 The electronic state is 1-A.
 Alpha  occ. eigenvalues --  -25.27094 -25.26803 -19.59885 -14.75155 -10.64453
 Alpha  occ. eigenvalues --  -10.64414 -10.58143 -10.57300 -10.57111 -10.57071
 Alpha  occ. eigenvalues --  -10.56691 -10.55881 -10.55806 -10.53884 -10.53766
 Alpha  occ. eigenvalues --  -10.52814 -10.51995  -1.38324  -1.38075  -1.12148
 Alpha  occ. eigenvalues --   -1.02877  -0.98418  -0.90763  -0.87470  -0.86184
 Alpha  occ. eigenvalues --   -0.85650  -0.79111  -0.76030  -0.74207  -0.72874
 Alpha  occ. eigenvalues --   -0.70620  -0.69382  -0.65529  -0.63934  -0.62602
 Alpha  occ. eigenvalues --   -0.58798  -0.57990  -0.57577  -0.57469  -0.57230
 Alpha  occ. eigenvalues --   -0.54773  -0.54631  -0.53643  -0.52836  -0.51751
 Alpha  occ. eigenvalues --   -0.50421  -0.49512  -0.48291  -0.47817  -0.46734
 Alpha  occ. eigenvalues --   -0.45858  -0.44559  -0.44258  -0.44004  -0.43494
 Alpha  occ. eigenvalues --   -0.42853  -0.42388  -0.40936  -0.38495  -0.37975
 Alpha  occ. eigenvalues --   -0.37837  -0.33099  -0.32024  -0.31413  -0.30583
 Alpha virt. eigenvalues --    0.00220   0.01724   0.05979   0.07164   0.08253
 Alpha virt. eigenvalues --    0.08964   0.09293   0.10706   0.10781   0.11843
 Alpha virt. eigenvalues --    0.12146   0.12929   0.13285   0.13811   0.14514

 Mulliken charges:
               1
     1  C   -0.453111
     2  C   -0.321176
     3  C   -0.053320
     4  C   -0.126704
     5  C   -0.094185
     6  O   -0.531241
     7  N   -0.487479
     8  C   -0.281938
     9  C   -0.111636
    10  C   -0.252471
    11  C    0.303857
    12  C   -0.065523
    13  C    0.289021
    14  C   -0.245590
    15  H    0.173022
    16  H    0.172775
    17  H    0.174186
    18  F   -0.216353
    19  F   -0.210042
    20  H    0.150479
    21  H    0.154481
    22  H    0.149482
    23  H    0.152642
    24  H    0.171236
    25  H    0.160561
    26  H    0.135758
    27  H    0.127034
    28  H    0.358343
    29  H    0.197377
    30  H    0.174893
    31  H    0.175551
    32  C   -0.498433
    33  H    0.162823
    34  H    0.156098
    35  H    0.158210
    36  H    0.251371
 Sum of Mulliken charges =   0.00000

 Dipole moment (field-independent basis, Debye):
    X=              0.8711    Y=              3.1089    Z=             -1.6747  Tot=              3.6371
 Quadrupole moment (field-independent basis, Debye-Ang):
   XX=            -82.3131   YY=           -108.1533   ZZ=           -107.2164
   XY=             -4.5546   XZ=              6.6977   YZ=              4.9272

 Normal termination of Gaussian 09 at Wed Jun 26 12:22:40 2019.
