 Gaussian 09, Revision D.01,
 Gaussian 09:  ES64L-G09RevD.01 24-Apr-2013

 --------------------------------------------------------
 # m062x/def2tzvp int=ultrafine scrf=(solvent=chloroform)
 --------------------------------------------------------

 ------------
 AT3_2ginp012
 ------------
 Symbolic Z-matrix:
 Charge =  0 Multiplicity = 1

                         Standard orientation:
 ---------------------------------------------------------------------
 Center     Atomic      Atomic             Coordinates (Angstroms)
 Number     Number       Type             X           Y           Z
 ---------------------------------------------------------------------
      1          6           0        1.560061    3.372042   -0.292208
      2          6           0        2.379459    2.221121    0.303559
      3          6           0        1.985347    0.835226   -0.239292
      4          6           0        2.996669   -0.271437    0.161814
      5          6           0        2.666241   -1.572830   -0.574029
      6          8           0        3.706789   -2.520806   -0.326854
      7          7           0        0.612545    0.460978    0.168753
      8          6           0       -0.349474    0.325621   -0.931484
      9          6           0       -4.224246   -0.789009    0.657297
     10          6           0       -3.289932   -1.781638    0.354992
     11          6           0       -2.057752   -1.395058   -0.156875
     12          6           0       -1.706372   -0.065754   -0.400503
     13          6           0       -2.675418    0.881469   -0.067392
     14          6           0       -3.924780    0.557743    0.447972
     15          1           0       -5.192483   -1.067662    1.059766
     16          1           0       -3.499805   -2.833436    0.511039
     17          1           0       -4.631451    1.346389    0.678721
     18          9           0       -1.150369   -2.355122   -0.452973
     19          9           0       -2.373227    2.189684   -0.260048
     20          1           0        1.859019    4.331815    0.140759
     21          1           0        1.701285    3.436453   -1.376939
     22          1           0        0.487639    3.247823   -0.105869
     23          1           0        3.444558    2.388604    0.101398
     24          1           0        2.273680    2.223145    1.396488
     25          1           0        3.986071    0.050428   -0.195605
     26          1           0        2.580998   -1.371052   -1.654918
     27          1           0        1.693567   -1.951109   -0.229409
     28          1           0        3.404563   -3.377801   -0.653630
     29          1           0       -0.453007    1.240340   -1.535332
     30          1           0        0.005571   -0.463333   -1.600356
     31          1           0        2.008986    0.904175   -1.338380
     32          6           0        3.071272   -0.502539    1.676625
     33          1           0        2.074753   -0.724014    2.073000
     34          1           0        3.724753   -1.350217    1.895871
     35          1           0        3.463532    0.372389    2.204281
     36          1           0        0.251560    1.135861    0.837009
 ---------------------------------------------------------------------

 SCF Done:  E(RM062X) =  -836.456190666     A.U. after   12 cycles

 The electronic state is 1-A.
 Alpha  occ. eigenvalues --  -25.26879 -25.26710 -19.62180 -14.73575 -10.64309
 Alpha  occ. eigenvalues --  -10.64269 -10.57651 -10.57391 -10.56895 -10.56596
 Alpha  occ. eigenvalues --  -10.56571 -10.55773 -10.55734 -10.53332 -10.53218
 Alpha  occ. eigenvalues --  -10.52486 -10.51216  -1.38094  -1.37962  -1.13818
 Alpha  occ. eigenvalues --   -1.02144  -0.98228  -0.90479  -0.87042  -0.86064
 Alpha  occ. eigenvalues --   -0.85481  -0.78334  -0.76389  -0.74389  -0.72731
 Alpha  occ. eigenvalues --   -0.70353  -0.67781  -0.65331  -0.63628  -0.62320
 Alpha  occ. eigenvalues --   -0.58921  -0.58476  -0.57599  -0.57349  -0.57216
 Alpha  occ. eigenvalues --   -0.55251  -0.54615  -0.54354  -0.52464  -0.51199
 Alpha  occ. eigenvalues --   -0.49433  -0.49042  -0.48111  -0.47679  -0.46721
 Alpha  occ. eigenvalues --   -0.46109  -0.44668  -0.44029  -0.43893  -0.42790
 Alpha  occ. eigenvalues --   -0.42562  -0.40959  -0.40328  -0.38788  -0.37994
 Alpha  occ. eigenvalues --   -0.36792  -0.34713  -0.31878  -0.31316  -0.29284
 Alpha virt. eigenvalues --    0.00379   0.01841   0.06164   0.07210   0.07783
 Alpha virt. eigenvalues --    0.08287   0.09058   0.09982   0.11264   0.11981
 Alpha virt. eigenvalues --    0.12320   0.12884   0.13253   0.13764   0.14024

 Mulliken charges:
               1
     1  C   -0.434607
     2  C   -0.325924
     3  C   -0.157759
     4  C    0.030852
     5  C   -0.162703
     6  O   -0.510362
     7  N   -0.394475
     8  C   -0.311681
     9  C   -0.113685
    10  C   -0.247839
    11  C    0.284152
    12  C   -0.065218
    13  C    0.306629
    14  C   -0.249157
    15  H    0.172061
    16  H    0.172433
    17  H    0.172687
    18  F   -0.213520
    19  F   -0.214734
    20  H    0.153826
    21  H    0.146944
    22  H    0.141135
    23  H    0.149871
    24  H    0.163641
    25  H    0.138314
    26  H    0.129291
    27  H    0.155250
    28  H    0.334438
    29  H    0.180816
    30  H    0.191488
    31  H    0.184823
    32  C   -0.493811
    33  H    0.146751
    34  H    0.158431
    35  H    0.148026
    36  H    0.233617
 Sum of Mulliken charges =   0.00000

 Dipole moment (field-independent basis, Debye):
    X=             -2.9577    Y=              0.5347    Z=             -0.5781  Tot=              3.0607
 Quadrupole moment (field-independent basis, Debye-Ang):
   XX=           -100.1305   YY=            -98.6219   ZZ=           -102.5906
   XY=              8.2410   XZ=             -7.1451   YZ=              2.7917

 Normal termination of Gaussian 09 at Wed Jun 26 12:22:44 2019.
