 Gaussian 09, Revision D.01,
 Gaussian 09:  ES64L-G09RevD.01 24-Apr-2013

 --------------------------------------------------------
 # m062x/def2tzvp int=ultrafine scrf=(solvent=chloroform)
 --------------------------------------------------------

 ------------
 AT3_2ginp011
 ------------
 Symbolic Z-matrix:
 Charge =  0 Multiplicity = 1

                         Standard orientation:
 ---------------------------------------------------------------------
 Center     Atomic      Atomic             Coordinates (Angstroms)
 Number     Number       Type             X           Y           Z
 ---------------------------------------------------------------------
      1          6           0       -3.567296   -2.253910   -1.294969
      2          6           0       -2.267393   -1.938560   -0.545352
      3          6           0       -1.899397   -0.438154   -0.477150
      4          6           0       -2.901739    0.411339    0.346841
      5          6           0       -2.700514    1.904873    0.038842
      6          8           0       -3.666496    2.748887    0.669478
      7          7           0       -0.526763   -0.199292    0.014952
      8          6           0        0.531206   -0.485012   -0.962701
      9          6           0        4.445009    0.364028    0.710556
     10          6           0        3.726588   -0.750502    1.148185
     11          6           0        2.479413   -0.986913    0.586938
     12          6           0        1.896702   -0.178619   -0.390779
     13          6           0        2.658422    0.923107   -0.783058
     14          6           0        3.915101    1.212061   -0.262008
     15          1           0        5.422975    0.572662    1.131341
     16          1           0        4.112761   -1.424111    1.904322
     17          1           0        4.452851    2.083284   -0.617707
     18          9           0        1.767130   -2.062330    1.011713
     19          9           0        2.151658    1.747660   -1.728847
     20          1           0       -3.718205   -3.335443   -1.372548
     21          1           0       -4.445843   -1.836790   -0.793287
     22          1           0       -3.543432   -1.849255   -2.313365
     23          1           0       -2.319007   -2.346158    0.472902
     24          1           0       -1.444063   -2.468338   -1.039667
     25          1           0       -3.912878    0.156857    0.004203
     26          1           0       -2.820314    2.071802   -1.037776
     27          1           0       -1.677785    2.200846    0.306389
     28          1           0       -3.414301    2.838132    1.597151
     29          1           0        0.532617   -1.528439   -1.319104
     30          1           0        0.366892    0.149847   -1.836808
     31          1           0       -1.924000   -0.050077   -1.506495
     32          6           0       -2.831758    0.141080    1.856947
     33          1           0       -3.009794   -0.911869    2.096091
     34          1           0       -1.853909    0.421903    2.263998
     35          1           0       -3.596024    0.720576    2.383937
     36          1           0       -0.364384   -0.778358    0.836377
 ---------------------------------------------------------------------

 SCF Done:  E(RM062X) =  -836.455242376     A.U. after   12 cycles

 The electronic state is 1-A.
 Alpha  occ. eigenvalues --  -25.27023 -25.26699 -19.62316 -14.73742 -10.64295
 Alpha  occ. eigenvalues --  -10.64277 -10.57667 -10.57381 -10.56988 -10.56733
 Alpha  occ. eigenvalues --  -10.56581 -10.55806 -10.55743 -10.53546 -10.53172
 Alpha  occ. eigenvalues --  -10.52456 -10.52372  -1.38195  -1.38017  -1.13911
 Alpha  occ. eigenvalues --   -1.02263  -0.98276  -0.90584  -0.87138  -0.86075
 Alpha  occ. eigenvalues --   -0.85352  -0.78503  -0.77224  -0.74001  -0.72733
 Alpha  occ. eigenvalues --   -0.70459  -0.68768  -0.65408  -0.64024  -0.62016
 Alpha  occ. eigenvalues --   -0.58839  -0.58630  -0.57972  -0.57418  -0.57229
 Alpha  occ. eigenvalues --   -0.55248  -0.54578  -0.53541  -0.52993  -0.50960
 Alpha  occ. eigenvalues --   -0.50690  -0.48572  -0.47969  -0.47659  -0.47222
 Alpha  occ. eigenvalues --   -0.45561  -0.44657  -0.44127  -0.43943  -0.43048
 Alpha  occ. eigenvalues --   -0.42597  -0.41423  -0.40817  -0.40185  -0.38029
 Alpha  occ. eigenvalues --   -0.37395  -0.34589  -0.31831  -0.31325  -0.29328
 Alpha virt. eigenvalues --    0.00465   0.01800   0.05996   0.07241   0.07497
 Alpha virt. eigenvalues --    0.08646   0.09024   0.10328   0.11639   0.11970
 Alpha virt. eigenvalues --    0.12083   0.12558   0.12960   0.13731   0.14195

 Mulliken charges:
               1
     1  C   -0.450556
     2  C   -0.249115
     3  C   -0.176291
     4  C   -0.015096
     5  C   -0.120660
     6  O   -0.510079
     7  N   -0.403540
     8  C   -0.230941
     9  C   -0.114607
    10  C   -0.252374
    11  C    0.294990
    12  C   -0.086301
    13  C    0.302994
    14  C   -0.254068
    15  H    0.172745
    16  H    0.172913
    17  H    0.171997
    18  F   -0.218565
    19  F   -0.215193
    20  H    0.150899
    21  H    0.148279
    22  H    0.145137
    23  H    0.146077
    24  H    0.143749
    25  H    0.145547
    26  H    0.132782
    27  H    0.155907
    28  H    0.334961
    29  H    0.165392
    30  H    0.163017
    31  H    0.180046
    32  C   -0.546129
    33  H    0.155981
    34  H    0.163617
    35  H    0.153815
    36  H    0.242670
 Sum of Mulliken charges =   0.00000

 Dipole moment (field-independent basis, Debye):
    X=              2.6778    Y=             -2.0469    Z=              1.1236  Tot=              3.5529
 Quadrupole moment (field-independent basis, Debye-Ang):
   XX=            -98.0694   YY=           -109.1181   ZZ=            -98.7531
   XY=             10.4976   XZ=              2.8377   YZ=              3.4699

 Normal termination of Gaussian 09 at Wed Jun 26 12:21:50 2019.
