 Gaussian 09, Revision D.01,
 Gaussian 09:  ES64L-G09RevD.01 24-Apr-2013

 --------------------------------------------------------
 # m062x/def2tzvp int=ultrafine scrf=(solvent=chloroform)
 --------------------------------------------------------

 ------------
 AT3_1ginp003
 ------------
 Symbolic Z-matrix:
 Charge =  0 Multiplicity = 1

                         Standard orientation:
 ---------------------------------------------------------------------
 Center     Atomic      Atomic             Coordinates (Angstroms)
 Number     Number       Type             X           Y           Z
 ---------------------------------------------------------------------
      1          6           0       -2.252625    3.043578   -0.296331
      2          6           0       -2.831873    1.717406    0.212942
      3          6           0       -2.191817    0.473935   -0.432347
      4          6           0       -3.012394   -0.822801   -0.190735
      5          6           0       -3.007102   -1.261731    1.287376
      6          8           0       -1.732585   -1.710411    1.728097
      7          7           0       -0.788815    0.318892    0.053645
      8          6           0        0.210609    0.128417   -1.014299
      9          6           0        4.207932   -0.092809    0.643926
     10          6           0        3.597422   -1.253619    0.168286
     11          6           0        2.313367   -1.160836   -0.356836
     12          6           0        1.603910    0.038061   -0.443073
     13          6           0        2.264105    1.162225    0.055607
     14          6           0        3.542703    1.134203    0.593630
     15          1           0        5.208593   -0.144004    1.059774
     16          1           0        4.093398   -2.216665    0.200588
     17          1           0        3.993085    2.048830    0.961065
     18          9           0        1.720839   -2.286208   -0.817020
     19          9           0        1.597640    2.346042    0.013307
     20          1           0       -2.425770    3.159194   -1.371876
     21          1           0       -2.719198    3.893329    0.211204
     22          1           0       -1.172370    3.116977   -0.127867
     23          1           0       -2.720040    1.659477    1.303548
     24          1           0       -3.909858    1.696731    0.015946
     25          1           0       -4.053494   -0.579765   -0.447943
     26          1           0       -3.708296   -2.096038    1.416651
     27          1           0       -3.379090   -0.438839    1.920682
     28          1           0       -1.102974   -1.073687    1.323853
     29          1           0       -0.015421   -0.795371   -1.547000
     30          1           0        0.174404    0.946878   -1.750207
     31          1           0       -2.174665    0.649451   -1.520783
     32          6           0       -2.560324   -1.978214   -1.096471
     33          1           0       -1.565185   -2.332760   -0.815313
     34          1           0       -3.244967   -2.828348   -1.004232
     35          1           0       -2.539776   -1.677413   -2.149673
     36          1           0       -0.525770    1.157686    0.564649
 ---------------------------------------------------------------------

 SCF Done:  E(RM062X) =  -836.460775620     A.U. after   12 cycles

 The electronic state is 1-A.
 Alpha  occ. eigenvalues --  -25.27298 -25.26873 -19.59918 -14.75148 -10.64536
 Alpha  occ. eigenvalues --  -10.64518 -10.58207 -10.57239 -10.57236 -10.57072
 Alpha  occ. eigenvalues --  -10.56758 -10.55977 -10.55892 -10.53806 -10.53788
 Alpha  occ. eigenvalues --  -10.52843 -10.52023  -1.38421  -1.38192  -1.12179
 Alpha  occ. eigenvalues --   -1.02957  -0.98513  -0.90747  -0.87435  -0.86283
 Alpha  occ. eigenvalues --   -0.85816  -0.78919  -0.76199  -0.74695  -0.72965
 Alpha  occ. eigenvalues --   -0.70774  -0.68462  -0.65618  -0.64418  -0.62677
 Alpha  occ. eigenvalues --   -0.58935  -0.58149  -0.57650  -0.57523  -0.57233
 Alpha  occ. eigenvalues --   -0.55409  -0.54656  -0.53881  -0.52339  -0.51777
 Alpha  occ. eigenvalues --   -0.50183  -0.48677  -0.48350  -0.47866  -0.46843
 Alpha  occ. eigenvalues --   -0.46627  -0.45499  -0.44397  -0.44093  -0.43252
 Alpha  occ. eigenvalues --   -0.43004  -0.41697  -0.40637  -0.38653  -0.38081
 Alpha  occ. eigenvalues --   -0.38071  -0.33134  -0.32110  -0.31507  -0.30546
 Alpha virt. eigenvalues --    0.00145   0.01630   0.05894   0.07460   0.08210
 Alpha virt. eigenvalues --    0.08797   0.09157   0.10948   0.11359   0.11868
 Alpha virt. eigenvalues --    0.11912   0.12210   0.13179   0.13705   0.14340

 Mulliken charges:
               1
     1  C   -0.429510
     2  C   -0.332997
     3  C   -0.062345
     4  C   -0.099893
     5  C   -0.104114
     6  O   -0.531395
     7  N   -0.496363
     8  C   -0.273334
     9  C   -0.112377
    10  C   -0.245142
    11  C    0.297678
    12  C   -0.056014
    13  C    0.288919
    14  C   -0.248017
    15  H    0.173183
    16  H    0.173548
    17  H    0.174457
    18  F   -0.212122
    19  F   -0.216634
    20  H    0.146835
    21  H    0.155005
    22  H    0.136788
    23  H    0.168627
    24  H    0.152803
    25  H    0.149003
    26  H    0.135664
    27  H    0.128750
    28  H    0.359750
    29  H    0.188381
    30  H    0.187877
    31  H    0.180722
    32  C   -0.493691
    33  H    0.158479
    34  H    0.155996
    35  H    0.155729
    36  H    0.245751
 Sum of Mulliken charges =   0.00000

 Dipole moment (field-independent basis, Debye):
    X=              1.2590    Y=              3.1637    Z=             -1.8208  Tot=              3.8613
 Quadrupole moment (field-independent basis, Debye-Ang):
   XX=            -82.5236   YY=           -108.8313   ZZ=           -107.6605
   XY=             -4.8223   XZ=              8.0609   YZ=              5.4182

 Normal termination of Gaussian 09 at Wed Jun 26 12:23:14 2019.
