 Gaussian 09, Revision D.01,
 Gaussian 09:  ES64L-G09RevD.01 24-Apr-2013

 --------------------------------------------------------
 # m062x/def2tzvp int=ultrafine scrf=(solvent=chloroform)
 --------------------------------------------------------

 ------------
 AT3_2ginp007
 ------------
 Symbolic Z-matrix:
 Charge =  0 Multiplicity = 1

                         Standard orientation:
 ---------------------------------------------------------------------
 Center     Atomic      Atomic             Coordinates (Angstroms)
 Number     Number       Type             X           Y           Z
 ---------------------------------------------------------------------
      1          6           0       -2.050665    3.193434   -0.151070
      2          6           0       -2.556276    1.784059   -0.485987
      3          6           0       -1.894110    0.672561    0.350437
      4          6           0       -2.670064   -0.672792    0.329983
      5          6           0       -2.948315   -1.166889   -1.097524
      6          8           0       -3.465883   -2.499622   -1.128552
      7          7           0       -0.512170    0.461156   -0.123890
      8          6           0        0.420195    0.052369    0.934666
      9          6           0        4.461299   -0.332367   -0.599790
     10          6           0        3.765685   -1.475012   -0.204996
     11          6           0        2.470510   -1.330487    0.280562
     12          6           0        1.826081   -0.098521    0.402201
     13          6           0        2.573064    1.006067   -0.011936
     14          6           0        3.866759    0.927843   -0.507615
     15          1           0        5.472047   -0.423322   -0.983232
     16          1           0        4.204910   -2.463875   -0.267620
     17          1           0        4.382792    1.831626   -0.809976
     18          9           0        1.802630   -2.443248    0.665099
     19          9           0        1.980969    2.226471    0.073511
     20          1           0       -2.530447    3.942283   -0.788866
     21          1           0       -2.270744    3.450392    0.890918
     22          1           0       -0.968377    3.294439   -0.290897
     23          1           0       -3.640049    1.754808   -0.331758
     24          1           0       -2.389338    1.573152   -1.550072
     25          1           0       -2.000694   -1.417673    0.787804
     26          1           0       -2.031262   -1.085296   -1.695594
     27          1           0       -3.717186   -0.549732   -1.574820
     28          1           0       -2.776918   -3.080642   -0.777804
     29          1           0        0.434196    0.767113    1.776810
     30          1           0        0.097726   -0.908062    1.342284
     31          1           0       -1.887052    1.017381    1.402461
     32          6           0       -3.950309   -0.632268    1.173558
     33          1           0       -4.656965    0.119251    0.803795
     34          1           0       -4.453283   -1.601926    1.135664
     35          1           0       -3.730743   -0.398228    2.220786
     36          1           0       -0.161864    1.330204   -0.516657
 ---------------------------------------------------------------------

 SCF Done:  E(RM062X) =  -836.456113063     A.U. after   12 cycles

 The electronic state is 1-A.
 Alpha  occ. eigenvalues --  -25.27153 -25.26833 -19.62243 -14.73834 -10.64401
 Alpha  occ. eigenvalues --  -10.64381 -10.57737 -10.57368 -10.57118 -10.56799
 Alpha  occ. eigenvalues --  -10.56656 -10.55885 -10.55827 -10.53681 -10.53495
 Alpha  occ. eigenvalues --  -10.52682 -10.52015  -1.38292  -1.38143  -1.13834
 Alpha  occ. eigenvalues --   -1.02461  -0.98382  -0.90668  -0.87375  -0.86173
 Alpha  occ. eigenvalues --   -0.85521  -0.78531  -0.76490  -0.74292  -0.72831
 Alpha  occ. eigenvalues --   -0.70651  -0.69411  -0.65449  -0.63742  -0.62439
 Alpha  occ. eigenvalues --   -0.58794  -0.58044  -0.57541  -0.57337  -0.56890
 Alpha  occ. eigenvalues --   -0.55224  -0.54737  -0.54488  -0.53376  -0.51661
 Alpha  occ. eigenvalues --   -0.50523  -0.48623  -0.48190  -0.47666  -0.47265
 Alpha  occ. eigenvalues --   -0.46164  -0.44365  -0.43970  -0.43765  -0.43453
 Alpha  occ. eigenvalues --   -0.42673  -0.41920  -0.40676  -0.39838  -0.37649
 Alpha  occ. eigenvalues --   -0.37165  -0.34496  -0.31951  -0.31420  -0.29855
 Alpha virt. eigenvalues --    0.00348   0.01714   0.05946   0.07114   0.07827
 Alpha virt. eigenvalues --    0.08631   0.09037   0.10335   0.11505   0.11663
 Alpha virt. eigenvalues --    0.12197   0.12741   0.13299   0.13825   0.14321

 Mulliken charges:
               1
     1  C   -0.431137
     2  C   -0.351609
     3  C   -0.080538
     4  C   -0.139551
     5  C   -0.096116
     6  O   -0.505989
     7  N   -0.388260
     8  C   -0.226405
     9  C   -0.114198
    10  C   -0.253440
    11  C    0.306382
    12  C   -0.090793
    13  C    0.295388
    14  C   -0.251371
    15  H    0.172865
    16  H    0.172185
    17  H    0.174021
    18  F   -0.216405
    19  F   -0.219071
    20  H    0.153106
    21  H    0.146206
    22  H    0.135871
    23  H    0.153677
    24  H    0.172167
    25  H    0.133818
    26  H    0.149785
    27  H    0.147957
    28  H    0.328477
    29  H    0.165683
    30  H    0.161502
    31  H    0.166523
    32  C   -0.435073
    33  H    0.139990
    34  H    0.155801
    35  H    0.148774
    36  H    0.219779
 Sum of Mulliken charges =   0.00000

 Dipole moment (field-independent basis, Debye):
    X=              3.1964    Y=              1.5904    Z=              0.9041  Tot=              3.6829
 Quadrupole moment (field-independent basis, Debye-Ang):
   XX=            -97.7866   YY=           -103.8728   ZZ=           -105.2255
   XY=             -9.6153   XZ=             -8.5721   YZ=             -3.5726

 Normal termination of Gaussian 09 at Wed Jun 26 12:21:59 2019.
