 Gaussian 09, Revision D.01,
 Gaussian 09:  ES64L-G09RevD.01 24-Apr-2013

 --------------------------------------------------------
 # m062x/def2tzvp int=ultrafine scrf=(solvent=chloroform)
 --------------------------------------------------------

 ------------
 AT3_2ginp001
 ------------
 Symbolic Z-matrix:
 Charge =  0 Multiplicity = 1

                         Standard orientation:
 ---------------------------------------------------------------------
 Center     Atomic      Atomic             Coordinates (Angstroms)
 Number     Number       Type             X           Y           Z
 ---------------------------------------------------------------------
      1          6           0       -3.960526   -1.851427   -1.174925
      2          6           0       -2.574754   -1.673818   -0.543280
      3          6           0       -2.079347   -0.213701   -0.469293
      4          6           0       -2.984172    0.729608    0.368022
      5          6           0       -2.529983    2.196477    0.223987
      6          8           0       -1.287022    2.469685    0.852853
      7          7           0       -0.673398   -0.105640    0.003973
      8          6           0        0.345158   -0.535920   -0.970954
      9          6           0        4.331003    0.074274    0.620830
     10          6           0        3.799227    1.002193   -0.275289
     11          6           0        2.518467    0.786865   -0.770792
     12          6           0        1.736813   -0.317811   -0.427575
     13          6           0        2.319998   -1.206639    0.477059
     14          6           0        3.592079   -1.045021    1.008919
     15          1           0        5.327790    0.225053    1.021603
     16          1           0        4.353215    1.879290   -0.588897
     17          1           0        3.980665   -1.777574    1.706670
     18          9           0        2.002214    1.686553   -1.638409
     19          9           0        1.585473   -2.282797    0.854717
     20          1           0       -4.199741   -2.913401   -1.288840
     21          1           0       -4.751186   -1.401332   -0.567076
     22          1           0       -4.003828   -1.393983   -2.169975
     23          1           0       -2.568114   -2.111156    0.463427
     24          1           0       -1.849850   -2.252588   -1.127643
     25          1           0       -3.986138    0.678297   -0.078720
     26          1           0       -3.276752    2.853729    0.686995
     27          1           0       -2.499114    2.453951   -0.850010
     28          1           0       -0.720421    1.712451    0.587031
     29          1           0        0.241955   -1.590939   -1.260815
     30          1           0        0.217817    0.065412   -1.874048
     31          1           0       -2.076110    0.187917   -1.492998
     32          6           0       -3.098672    0.332487    1.847974
     33          1           0       -2.134909    0.417705    2.358395
     34          1           0       -3.795146    1.001615    2.364053
     35          1           0       -3.468831   -0.689154    1.975217
     36          1           0       -0.562273   -0.662498    0.850128
 ---------------------------------------------------------------------

 SCF Done:  E(RM062X) =  -836.461668684     A.U. after   12 cycles

 The electronic state is 1-A.
 Alpha  occ. eigenvalues --  -25.27133 -25.26830 -19.59937 -14.75157 -10.64456
 Alpha  occ. eigenvalues --  -10.64448 -10.58216 -10.57224 -10.57170 -10.57098
 Alpha  occ. eigenvalues --  -10.56700 -10.55900 -10.55828 -10.53897 -10.53473
 Alpha  occ. eigenvalues --  -10.52712 -10.52199  -1.38345  -1.38161  -1.12249
 Alpha  occ. eigenvalues --   -1.02931  -0.98439  -0.90797  -0.87434  -0.86204
 Alpha  occ. eigenvalues --   -0.85405  -0.78968  -0.76577  -0.74237  -0.72904
 Alpha  occ. eigenvalues --   -0.70768  -0.69325  -0.65570  -0.63930  -0.62345
 Alpha  occ. eigenvalues --   -0.58856  -0.58105  -0.57553  -0.57388  -0.56693
 Alpha  occ. eigenvalues --   -0.55532  -0.54654  -0.54225  -0.53122  -0.51973
 Alpha  occ. eigenvalues --   -0.49501  -0.48758  -0.48255  -0.47783  -0.46723
 Alpha  occ. eigenvalues --   -0.46276  -0.45121  -0.44119  -0.43598  -0.43296
 Alpha  occ. eigenvalues --   -0.42817  -0.42172  -0.41410  -0.38975  -0.38299
 Alpha  occ. eigenvalues --   -0.37746  -0.33245  -0.32030  -0.31427  -0.30238
 Alpha virt. eigenvalues --    0.00240   0.01701   0.05911   0.06962   0.07922
 Alpha virt. eigenvalues --    0.08830   0.09023   0.10747   0.11420   0.12214
 Alpha virt. eigenvalues --    0.12509   0.12551   0.13394   0.13950   0.14206

 Mulliken charges:
               1
     1  C   -0.456758
     2  C   -0.269830
     3  C   -0.104192
     4  C   -0.139273
     5  C   -0.073153
     6  O   -0.532588
     7  N   -0.492573
     8  C   -0.228454
     9  C   -0.111274
    10  C   -0.251860
    11  C    0.302770
    12  C   -0.085252
    13  C    0.303024
    14  C   -0.252989
    15  H    0.173424
    16  H    0.173024
    17  H    0.173455
    18  F   -0.212652
    19  F   -0.216150
    20  H    0.153225
    21  H    0.151975
    22  H    0.148725
    23  H    0.157184
    24  H    0.145851
    25  H    0.160265
    26  H    0.135257
    27  H    0.118864
    28  H    0.355433
    29  H    0.175261
    30  H    0.171088
    31  H    0.184565
    32  C   -0.478163
    33  H    0.154162
    34  H    0.154363
    35  H    0.152570
    36  H    0.260679
 Sum of Mulliken charges =   0.00000

 Dipole moment (field-independent basis, Debye):
    X=              0.8086    Y=             -3.4155    Z=             -0.9749  Tot=              3.6428
 Quadrupole moment (field-independent basis, Debye-Ang):
   XX=            -82.5169   YY=           -113.5024   ZZ=           -103.6758
   XY=              3.7649   XZ=              6.2331   YZ=             -3.1924

 Normal termination of Gaussian 09 at Wed Jun 26 12:21:47 2019.
