 Gaussian 09, Revision D.01,
 Gaussian 09:  ES64L-G09RevD.01 24-Apr-2013

 --------------------------------------------------------
 # m062x/def2tzvp int=ultrafine scrf=(solvent=chloroform)
 --------------------------------------------------------

 ------------
 AT3_2ginp010
 ------------
 Symbolic Z-matrix:
 Charge =  0 Multiplicity = 1

                         Standard orientation:
 ---------------------------------------------------------------------
 Center     Atomic      Atomic             Coordinates (Angstroms)
 Number     Number       Type             X           Y           Z
 ---------------------------------------------------------------------
      1          6           0       -1.155690    2.953686   -0.699867
      2          6           0       -0.779475    1.493698   -0.977463
      3          6           0       -1.390725    0.469178    0.001439
      4          6           0       -2.943496    0.506853    0.065232
      5          6           0       -3.474431   -0.472523    1.130926
      6          8           0       -3.336493   -1.836719    0.758423
      7          7           0       -0.925244   -0.919670   -0.276208
      8          6           0        0.230613   -1.403991    0.494774
      9          6           0        4.021350    0.632029   -0.118195
     10          6           0        3.542404   -0.255462   -1.084685
     11          6           0        2.326629   -0.883327   -0.852694
     12          6           0        1.552113   -0.682716    0.292167
     13          6           0        2.080588    0.217267    1.218596
     14          6           0        3.292020    0.877437    1.045620
     15          1           0        4.968892    1.136546   -0.274892
     16          1           0        4.089882   -0.462050   -1.996947
     17          1           0        3.642507    1.562729    1.808643
     18          9           0        1.844991   -1.741360   -1.786051
     19          9           0        1.367836    0.462426    2.345385
     20          1           0       -0.911453    3.236694    0.330483
     21          1           0       -0.606007    3.625909   -1.366226
     22          1           0       -2.222744    3.141057   -0.852435
     23          1           0       -1.068305    1.228826   -2.003221
     24          1           0        0.310082    1.394091   -0.936079
     25          1           0       -3.219903    1.511913    0.411914
     26          1           0       -4.543843   -0.287984    1.293777
     27          1           0       -2.965640   -0.267818    2.090176
     28          1           0       -2.445618   -1.870747    0.345902
     29          1           0       -0.030565   -1.366194    1.554409
     30          1           0        0.369325   -2.457403    0.233852
     31          1           0       -1.030976    0.715988    1.009505
     32          6           0       -3.621934    0.258915   -1.290359
     33          1           0       -3.366073   -0.728746   -1.683939
     34          1           0       -4.711068    0.292862   -1.181562
     35          1           0       -3.341332    1.009933   -2.034613
     36          1           0       -0.743758   -1.040024   -1.269637
 ---------------------------------------------------------------------

 SCF Done:  E(RM062X) =  -836.462300579     A.U. after   12 cycles

 The electronic state is 1-A.
 Alpha  occ. eigenvalues --  -25.27179 -25.27031 -19.59984 -14.75044 -10.64569
 Alpha  occ. eigenvalues --  -10.64534 -10.58339 -10.57158 -10.57084 -10.57070
 Alpha  occ. eigenvalues --  -10.56866 -10.56059 -10.56039 -10.53722 -10.53435
 Alpha  occ. eigenvalues --  -10.52647 -10.52053  -1.38395  -1.38272  -1.12286
 Alpha  occ. eigenvalues --   -1.02692  -0.98504  -0.90633  -0.87611  -0.86343
 Alpha  occ. eigenvalues --   -0.85285  -0.79088  -0.76511  -0.74413  -0.72983
 Alpha  occ. eigenvalues --   -0.70561  -0.69416  -0.65620  -0.64128  -0.62006
 Alpha  occ. eigenvalues --   -0.59065  -0.58466  -0.57659  -0.57483  -0.56830
 Alpha  occ. eigenvalues --   -0.55477  -0.54853  -0.54159  -0.52895  -0.51658
 Alpha  occ. eigenvalues --   -0.49897  -0.48766  -0.48181  -0.47734  -0.46433
 Alpha  occ. eigenvalues --   -0.46409  -0.45190  -0.44143  -0.43912  -0.43401
 Alpha  occ. eigenvalues --   -0.42892  -0.42172  -0.41338  -0.38824  -0.38067
 Alpha  occ. eigenvalues --   -0.37749  -0.33249  -0.32363  -0.31621  -0.29839
 Alpha virt. eigenvalues --   -0.00018   0.01466   0.05803   0.07071   0.07783
 Alpha virt. eigenvalues --    0.08500   0.08913   0.10878   0.11357   0.11963
 Alpha virt. eigenvalues --    0.12065   0.12434   0.13246   0.13702   0.14240

 Mulliken charges:
               1
     1  C   -0.455493
     2  C   -0.302685
     3  C   -0.103172
     4  C   -0.139589
     5  C   -0.076776
     6  O   -0.534406
     7  N   -0.482422
     8  C   -0.298705
     9  C   -0.116891
    10  C   -0.246284
    11  C    0.312412
    12  C   -0.118975
    13  C    0.304791
    14  C   -0.232547
    15  H    0.173820
    16  H    0.173876
    17  H    0.173930
    18  F   -0.214714
    19  F   -0.214611
    20  H    0.150400
    21  H    0.153292
    22  H    0.152688
    23  H    0.167205
    24  H    0.158052
    25  H    0.160393
    26  H    0.137599
    27  H    0.121582
    28  H    0.358939
    29  H    0.203276
    30  H    0.194858
    31  H    0.197907
    32  C   -0.471727
    33  H    0.153525
    34  H    0.153108
    35  H    0.152807
    36  H    0.254538
 Sum of Mulliken charges =   0.00000

 Dipole moment (field-independent basis, Debye):
    X=              4.4359    Y=              3.4141    Z=             -1.3147  Tot=              5.7499
 Quadrupole moment (field-independent basis, Debye-Ang):
   XX=           -101.3042   YY=           -107.4049   ZZ=           -104.1813
   XY=             -6.8889   XZ=              1.2984   YZ=              1.7149

 Normal termination of Gaussian 09 at Wed Jun 26 12:23:45 2019.
