 Gaussian 09, Revision D.01,
 Gaussian 09:  ES64L-G09RevD.01 24-Apr-2013

 --------------------------------------------------------
 # m062x/def2tzvp int=ultrafine scrf=(solvent=chloroform)
 --------------------------------------------------------

 ------------
 AT3_1ginp012
 ------------
 Symbolic Z-matrix:
 Charge =  0 Multiplicity = 1

                         Standard orientation:
 ---------------------------------------------------------------------
 Center     Atomic      Atomic             Coordinates (Angstroms)
 Number     Number       Type             X           Y           Z
 ---------------------------------------------------------------------
      1          6           0       -3.450706    2.560450   -0.700058
      2          6           0       -2.218259    1.950696   -0.023121
      3          6           0       -1.848314    0.539457   -0.527418
      4          6           0       -2.882807   -0.548888   -0.139760
      5          6           0       -2.857145   -0.890796    1.354742
      6          8           0       -4.002814   -1.698249    1.637014
      7          7           0       -0.511537    0.157745   -0.030838
      8          6           0        0.596133    0.769920   -0.779487
      9          6           0        4.429849   -0.758041    0.564883
     10          6           0        4.083197    0.564854    0.839110
     11          6           0        2.848539    1.033077    0.402570
     12          6           0        1.933539    0.251055   -0.304452
     13          6           0        2.337838   -1.063606   -0.545427
     14          6           0        3.553594   -1.591030   -0.133804
     15          1           0        5.387550   -1.143612    0.898231
     16          1           0        4.745621    1.230859    1.379758
     17          1           0        3.795784   -2.623253   -0.358368
     18          9           0        2.520908    2.318761    0.668736
     19          9           0        1.473937   -1.867986   -1.218340
     20          1           0       -3.612659    3.586715   -0.355613
     21          1           0       -3.329596    2.591923   -1.789041
     22          1           0       -4.364454    1.997605   -0.484932
     23          1           0       -1.364569    2.614839   -0.199845
     24          1           0       -2.355614    1.927388    1.063862
     25          1           0       -3.876923   -0.131046   -0.340123
     26          1           0       -2.875314    0.027698    1.957651
     27          1           0       -1.930262   -1.425485    1.607006
     28          1           0       -3.942405   -1.977429    2.559664
     29          1           0        0.510850    0.590619   -1.866295
     30          1           0        0.575079    1.851261   -0.634359
     31          1           0       -1.847963    0.586096   -1.634898
     32          6           0       -2.744732   -1.816978   -0.999023
     33          1           0       -1.764435   -2.295243   -0.880058
     34          1           0       -3.501117   -2.551024   -0.712095
     35          1           0       -2.873223   -1.585581   -2.061427
     36          1           0       -0.411048   -0.848534   -0.135455
 ---------------------------------------------------------------------

 SCF Done:  E(RM062X) =  -836.454270067     A.U. after   12 cycles

 The electronic state is 1-A.
 Alpha  occ. eigenvalues --  -25.27110 -25.26737 -19.62415 -14.73863 -10.64348
 Alpha  occ. eigenvalues --  -10.64341 -10.57810 -10.57626 -10.57075 -10.56691
 Alpha  occ. eigenvalues --  -10.56624 -10.55846 -10.55781 -10.53960 -10.52875
 Alpha  occ. eigenvalues --  -10.52270 -10.52151  -1.38261  -1.38058  -1.14083
 Alpha  occ. eigenvalues --   -1.02409  -0.98333  -0.90667  -0.87201  -0.86124
 Alpha  occ. eigenvalues --   -0.85520  -0.78458  -0.76694  -0.74303  -0.72757
 Alpha  occ. eigenvalues --   -0.70682  -0.68366  -0.65408  -0.63086  -0.62212
 Alpha  occ. eigenvalues --   -0.59777  -0.58640  -0.57545  -0.57363  -0.57277
 Alpha  occ. eigenvalues --   -0.54985  -0.54759  -0.54440  -0.53028  -0.51514
 Alpha  occ. eigenvalues --   -0.49884  -0.49295  -0.48092  -0.47667  -0.47359
 Alpha  occ. eigenvalues --   -0.45680  -0.44771  -0.43977  -0.43809  -0.43402
 Alpha  occ. eigenvalues --   -0.42222  -0.41700  -0.40724  -0.38379  -0.38123
 Alpha  occ. eigenvalues --   -0.36938  -0.34734  -0.31928  -0.31371  -0.30078
 Alpha virt. eigenvalues --    0.00381   0.01761   0.06239   0.07268   0.07624
 Alpha virt. eigenvalues --    0.08585   0.09437   0.09919   0.11705   0.11981
 Alpha virt. eigenvalues --    0.12231   0.12484   0.13717   0.13849   0.14127

 Mulliken charges:
               1
     1  C   -0.454563
     2  C   -0.233140
     3  C   -0.076630
     4  C   -0.175514
     5  C   -0.086472
     6  O   -0.508217
     7  N   -0.403777
     8  C   -0.227266
     9  C   -0.114084
    10  C   -0.253765
    11  C    0.306871
    12  C   -0.095861
    13  C    0.296716
    14  C   -0.252044
    15  H    0.172746
    16  H    0.172065
    17  H    0.173918
    18  F   -0.214989
    19  F   -0.219032
    20  H    0.150674
    21  H    0.143503
    22  H    0.147529
    23  H    0.135055
    24  H    0.142029
    25  H    0.149143
    26  H    0.131699
    27  H    0.137866
    28  H    0.334904
    29  H    0.165220
    30  H    0.157736
    31  H    0.168628
    32  C   -0.441370
    33  H    0.137457
    34  H    0.163007
    35  H    0.150482
    36  H    0.219474
 Sum of Mulliken charges =   0.00000

 Dipole moment (field-independent basis, Debye):
    X=              2.3938    Y=             -0.4316    Z=              0.5656  Tot=              2.4973
 Quadrupole moment (field-independent basis, Debye-Ang):
   XX=            -96.9160   YY=           -103.3075   ZZ=            -98.4274
   XY=             -7.8335   XZ=              0.8903   YZ=             -4.5213

 Normal termination of Gaussian 09 at Wed Jun 26 12:21:44 2019.
