 Gaussian 09, Revision D.01,
 Gaussian 09:  ES64L-G09RevD.01 24-Apr-2013

 --------------------------------------------------------
 # m062x/def2tzvp int=ultrafine scrf=(solvent=chloroform)
 --------------------------------------------------------

 ------------
 AT3_1ginp020
 ------------
 Symbolic Z-matrix:
 Charge =  0 Multiplicity = 1

                         Standard orientation:
 ---------------------------------------------------------------------
 Center     Atomic      Atomic             Coordinates (Angstroms)
 Number     Number       Type             X           Y           Z
 ---------------------------------------------------------------------
      1          6           0        2.084061   -2.131983    2.109801
      2          6           0        2.539365   -0.763391    1.594988
      3          6           0        1.898793   -0.380018    0.246767
      4          6           0        2.583517    0.833399   -0.455378
      5          6           0        4.015593    0.528030   -0.904113
      6          8           0        3.999547   -0.614943   -1.758336
      7          7           0        0.451026   -0.211938    0.461246
      8          6           0       -0.368858   -0.138971   -0.752038
      9          6           0       -4.564000    0.282920    0.278841
     10          6           0       -4.104012   -0.927419   -0.239913
     11          6           0       -2.755983   -1.044067   -0.562136
     12          6           0       -1.833862   -0.008982   -0.401916
     13          6           0       -2.354101    1.174740    0.124491
     14          6           0       -3.686834    1.352828    0.468398
     15          1           0       -5.611487    0.393645    0.538712
     16          1           0       -4.764777   -1.772421   -0.395248
     17          1           0       -4.016247    2.303028    0.872451
     18          9           0       -2.317737   -2.219939   -1.067982
     19          9           0       -1.489577    2.206337    0.314566
     20          1           0        2.509042   -2.346564    3.095981
     21          1           0        0.994455   -2.168674    2.185678
     22          1           0        2.399585   -2.931446    1.429452
     23          1           0        2.297258    0.006541    2.340066
     24          1           0        3.630838   -0.758561    1.496721
     25          1           0        2.020544    1.018924   -1.379979
     26          1           0        4.663988    0.358557   -0.030774
     27          1           0        4.416289    1.406132   -1.434724
     28          1           0        4.913137   -0.819321   -1.995861
     29          1           0       -0.104330    0.697176   -1.419872
     30          1           0       -0.218663   -1.059817   -1.321538
     31          1           0        2.013534   -1.233443   -0.432864
     32          6           0        2.554189    2.125264    0.375131
     33          1           0        1.531071    2.397533    0.653729
     34          1           0        3.140307    2.033913    1.295927
     35          1           0        2.965062    2.963982   -0.196706
     36          1           0        0.285439    0.622230    1.020024
 ---------------------------------------------------------------------

 SCF Done:  E(RM062X) =  -836.455605445     A.U. after   12 cycles

 The electronic state is 1-A.
 Alpha  occ. eigenvalues --  -25.26904 -25.26512 -19.62677 -14.73289 -10.64123
 Alpha  occ. eigenvalues --  -10.64122 -10.58116 -10.57322 -10.56809 -10.56437
 Alpha  occ. eigenvalues --  -10.55978 -10.55676 -10.55601 -10.53712 -10.52642
 Alpha  occ. eigenvalues --  -10.52586 -10.51450  -1.38032  -1.37836  -1.14378
 Alpha  occ. eigenvalues --   -1.01880  -0.98094  -0.90349  -0.87303  -0.85927
 Alpha  occ. eigenvalues --   -0.85131  -0.78161  -0.76725  -0.73829  -0.72570
 Alpha  occ. eigenvalues --   -0.70316  -0.68608  -0.65189  -0.63529  -0.61698
 Alpha  occ. eigenvalues --   -0.59061  -0.58487  -0.57685  -0.57248  -0.57080
 Alpha  occ. eigenvalues --   -0.55604  -0.54846  -0.54268  -0.52281  -0.51462
 Alpha  occ. eigenvalues --   -0.49466  -0.48436  -0.47942  -0.47455  -0.46893
 Alpha  occ. eigenvalues --   -0.45838  -0.44334  -0.44148  -0.43794  -0.43035
 Alpha  occ. eigenvalues --   -0.42360  -0.41190  -0.39573  -0.39058  -0.38480
 Alpha  occ. eigenvalues --   -0.36868  -0.35283  -0.31633  -0.31183  -0.28878
 Alpha virt. eigenvalues --    0.00659   0.01945   0.06286   0.06564   0.08022
 Alpha virt. eigenvalues --    0.08790   0.09182   0.10459   0.11564   0.12091
 Alpha virt. eigenvalues --    0.12804   0.12949   0.13172   0.13871   0.13997

 Mulliken charges:
               1
     1  C   -0.433778
     2  C   -0.276136
     3  C   -0.104792
     4  C   -0.099534
     5  C   -0.126345
     6  O   -0.503504
     7  N   -0.384088
     8  C   -0.234592
     9  C   -0.115270
    10  C   -0.254619
    11  C    0.303854
    12  C   -0.087373
    13  C    0.296512
    14  C   -0.251901
    15  H    0.171882
    16  H    0.171156
    17  H    0.172911
    18  F   -0.214577
    19  F   -0.218205
    20  H    0.142081
    21  H    0.145703
    22  H    0.137311
    23  H    0.148328
    24  H    0.139868
    25  H    0.143940
    26  H    0.138990
    27  H    0.134126
    28  H    0.335451
    29  H    0.167398
    30  H    0.161910
    31  H    0.185887
    32  C   -0.490278
    33  H    0.149169
    34  H    0.160830
    35  H    0.158993
    36  H    0.228696
 Sum of Mulliken charges =   0.00000

 Dipole moment (field-independent basis, Debye):
    X=              0.6269    Y=              1.9989    Z=              0.2189  Tot=              2.1063
 Quadrupole moment (field-independent basis, Debye-Ang):
   XX=            -71.9062   YY=           -106.1702   ZZ=           -105.3762
   XY=              0.0091   XZ=             -4.3523   YZ=              0.6506

 Normal termination of Gaussian 09 at Wed Jun 26 12:21:10 2019.
