 Gaussian 09, Revision D.01,
 Gaussian 09:  ES64L-G09RevD.01 24-Apr-2013

 --------------------------------------------------------
 # m062x/def2tzvp int=ultrafine scrf=(solvent=chloroform)
 --------------------------------------------------------

 ------------
 AT3_1ginp002
 ------------
 Symbolic Z-matrix:
 Charge =  0 Multiplicity = 1

                         Standard orientation:
 ---------------------------------------------------------------------
 Center     Atomic      Atomic             Coordinates (Angstroms)
 Number     Number       Type             X           Y           Z
 ---------------------------------------------------------------------
      1          6           0       -3.887070    1.867474   -1.078286
      2          6           0       -2.459313    1.594041   -0.591664
      3          6           0       -2.031796    0.115103   -0.664590
      4          6           0       -2.972596   -0.847184    0.112450
      5          6           0       -3.052201   -0.520497    1.617087
      6          8           0       -1.817648   -0.696726    2.301017
      7          7           0       -0.649429   -0.050817   -0.146182
      8          6           0        0.390071    0.694236   -0.881001
      9          6           0        4.351908   -0.439561    0.474102
     10          6           0        3.852261    0.823790    0.789958
     11          6           0        2.578707    1.164649    0.347983
     12          6           0        1.770546    0.309860   -0.404062
     13          6           0        2.325476   -0.940171   -0.685239
     14          6           0        3.587662   -1.340298   -0.270569
     15          1           0        5.342243   -0.725833    0.811960
     16          1           0        4.425833    1.539460    1.367357
     17          1           0        3.950082   -2.328941   -0.526806
     18          9           0        2.100504    2.392448    0.653657
     19          9           0        1.566434   -1.810291   -1.400079
     20          1           0       -4.643295    1.446062   -0.409624
     21          1           0       -4.069306    2.944752   -1.139195
     22          1           0       -4.053529    1.447050   -2.076849
     23          1           0       -1.774936    2.183296   -1.211230
     24          1           0       -2.331111    1.960784    0.434011
     25          1           0       -3.978072   -0.693142   -0.298489
     26          1           0       -3.777747   -1.193352    2.090512
     27          1           0       -3.436236    0.503149    1.754230
     28          1           0       -1.147301   -0.274287    1.724401
     29          1           0        0.321393    0.518923   -1.967678
     30          1           0        0.254368    1.762509   -0.714390
     31          1           0       -2.073757   -0.179040   -1.731308
     32          6           0       -2.609372   -2.324899   -0.109645
     33          1           0       -1.705448   -2.603178    0.440308
     34          1           0       -3.413251   -2.972386    0.255341
     35          1           0       -2.456457   -2.547870   -1.171258
     36          1           0       -0.414437   -1.037109   -0.237516
 ---------------------------------------------------------------------

 SCF Done:  E(RM062X) =  -836.460696382     A.U. after   12 cycles

 The electronic state is 1-A.
 Alpha  occ. eigenvalues --  -25.27254 -25.26888 -19.60433 -14.75084 -10.64514
 Alpha  occ. eigenvalues --  -10.64507 -10.58131 -10.57345 -10.57286 -10.57268
 Alpha  occ. eigenvalues --  -10.56738 -10.55950 -10.55881 -10.54125 -10.53463
 Alpha  occ. eigenvalues --  -10.52694 -10.52424  -1.38429  -1.38226  -1.12591
 Alpha  occ. eigenvalues --   -1.03002  -0.98502  -0.90860  -0.87487  -0.86259
 Alpha  occ. eigenvalues --   -0.85733  -0.79008  -0.76559  -0.74525  -0.72921
 Alpha  occ. eigenvalues --   -0.71178  -0.68689  -0.65543  -0.63514  -0.62682
 Alpha  occ. eigenvalues --   -0.58986  -0.58272  -0.57649  -0.57452  -0.56955
 Alpha  occ. eigenvalues --   -0.55286  -0.54817  -0.54680  -0.52935  -0.51712
 Alpha  occ. eigenvalues --   -0.50492  -0.49336  -0.48297  -0.47760  -0.47303
 Alpha  occ. eigenvalues --   -0.45912  -0.44488  -0.44416  -0.44014  -0.43685
 Alpha  occ. eigenvalues --   -0.42665  -0.42510  -0.40534  -0.39111  -0.38476
 Alpha  occ. eigenvalues --   -0.36908  -0.33714  -0.32146  -0.31485  -0.30706
 Alpha virt. eigenvalues --    0.00200   0.01649   0.05953   0.07094   0.07872
 Alpha virt. eigenvalues --    0.08975   0.09270   0.11084   0.11444   0.11860
 Alpha virt. eigenvalues --    0.12555   0.12849   0.13316   0.13817   0.14180

 Mulliken charges:
               1
     1  C   -0.461372
     2  C   -0.321278
     3  C   -0.009492
     4  C   -0.163675
     5  C   -0.106034
     6  O   -0.528798
     7  N   -0.498994
     8  C   -0.231254
     9  C   -0.112412
    10  C   -0.251446
    11  C    0.308666
    12  C   -0.098206
    13  C    0.298538
    14  C   -0.250449
    15  H    0.173624
    16  H    0.172940
    17  H    0.174067
    18  F   -0.213944
    19  F   -0.218209
    20  H    0.150776
    21  H    0.154842
    22  H    0.151974
    23  H    0.154592
    24  H    0.176230
    25  H    0.167447
    26  H    0.137131
    27  H    0.139393
    28  H    0.354924
    29  H    0.173040
    30  H    0.163926
    31  H    0.172732
    32  C   -0.490552
    33  H    0.157533
    34  H    0.158044
    35  H    0.158689
    36  H    0.257005
 Sum of Mulliken charges =   0.00000

 Dipole moment (field-independent basis, Debye):
    X=              1.3285    Y=              0.2750    Z=             -3.0781  Tot=              3.3638
 Quadrupole moment (field-independent basis, Debye-Ang):
   XX=            -82.9468   YY=           -103.4867   ZZ=           -112.3551
   XY=             -4.3148   XZ=              8.2717   YZ=              1.0671

 Normal termination of Gaussian 09 at Wed Jun 26 12:22:23 2019.
