 Gaussian 09, Revision D.01,
 Gaussian 09:  ES64L-G09RevD.01 24-Apr-2013

 --------------------------------------------------------
 # m062x/def2tzvp int=ultrafine scrf=(solvent=chloroform)
 --------------------------------------------------------

 ------------
 AT3_1ginp006
 ------------
 Symbolic Z-matrix:
 Charge =  0 Multiplicity = 1

                         Standard orientation:
 ---------------------------------------------------------------------
 Center     Atomic      Atomic             Coordinates (Angstroms)
 Number     Number       Type             X           Y           Z
 ---------------------------------------------------------------------
      1          6           0       -3.328907   -1.780931   -1.106461
      2          6           0       -2.201680   -1.714335   -0.069386
      3          6           0       -1.538040   -0.327001    0.104219
      4          6           0       -2.493072    0.793529    0.596473
      5          6           0       -1.724689    2.101435    0.885883
      6          8           0       -1.182320    2.727513   -0.263514
      7          7           0       -0.832609    0.147690   -1.113169
      8          6           0        0.364319   -0.609421   -1.522172
      9          6           0        3.700842    0.053170    1.169875
     10          6           0        3.013405   -1.159792    1.214313
     11          6           0        1.945061   -1.345424    0.344369
     12          6           0        1.523128   -0.386983   -0.578099
     13          6           0        2.247311    0.808220   -0.572507
     14          6           0        3.321428    1.053354    0.272378
     15          1           0        4.537249    0.221798    1.839947
     16          1           0        3.285663   -1.949989    1.904230
     17          1           0        3.839013    2.003993    0.218807
     18          9           0        1.269329   -2.519733    0.397314
     19          9           0        1.878930    1.769562   -1.449375
     20          1           0       -2.985429   -1.489615   -2.105700
     21          1           0       -3.716980   -2.801004   -1.186906
     22          1           0       -4.168108   -1.129164   -0.842768
     23          1           0       -2.581183   -2.043699    0.903932
     24          1           0       -1.420787   -2.437208   -0.331563
     25          1           0       -3.211936    1.019131   -0.204471
     26          1           0       -0.941065    1.886842    1.636637
     27          1           0       -2.411999    2.821311    1.347058
     28          1           0       -0.750853    1.991882   -0.750317
     29          1           0        0.186701   -1.687569   -1.614039
     30          1           0        0.644927   -0.241113   -2.513104
     31          1           0       -0.763392   -0.438463    0.875278
     32          6           0       -3.274798    0.376869    1.851955
     33          1           0       -2.596345    0.088687    2.664058
     34          1           0       -3.888319    1.208478    2.213502
     35          1           0       -3.944639   -0.465509    1.663091
     36          1           0       -1.485866    0.162684   -1.893876
 ---------------------------------------------------------------------

 SCF Done:  E(RM062X) =  -836.463420070     A.U. after   12 cycles

 The electronic state is 1-A.
 Alpha  occ. eigenvalues --  -25.26990 -25.26747 -19.59860 -14.75059 -10.64454
 Alpha  occ. eigenvalues --  -10.64353 -10.58233 -10.57115 -10.57089 -10.57077
 Alpha  occ. eigenvalues --  -10.56675 -10.55844 -10.55780 -10.53962 -10.53253
 Alpha  occ. eigenvalues --  -10.52718 -10.52632  -1.38225  -1.38048  -1.12221
 Alpha  occ. eigenvalues --   -1.02841  -0.98355  -0.90713  -0.87690  -0.86139
 Alpha  occ. eigenvalues --   -0.85344  -0.79281  -0.75547  -0.75172  -0.72801
 Alpha  occ. eigenvalues --   -0.70849  -0.68455  -0.65381  -0.64286  -0.62443
 Alpha  occ. eigenvalues --   -0.59194  -0.57814  -0.57465  -0.57331  -0.57218
 Alpha  occ. eigenvalues --   -0.55883  -0.54701  -0.54176  -0.52117  -0.50652
 Alpha  occ. eigenvalues --   -0.49718  -0.49039  -0.48571  -0.47785  -0.47262
 Alpha  occ. eigenvalues --   -0.46653  -0.44901  -0.44722  -0.44088  -0.42975
 Alpha  occ. eigenvalues --   -0.41925  -0.41699  -0.40830  -0.39717  -0.38697
 Alpha  occ. eigenvalues --   -0.37481  -0.33144  -0.32004  -0.31374  -0.30130
 Alpha virt. eigenvalues --    0.00158   0.01737   0.05822   0.07005   0.07639
 Alpha virt. eigenvalues --    0.08936   0.09144   0.11146   0.11571   0.12046
 Alpha virt. eigenvalues --    0.12217   0.12644   0.12884   0.13921   0.14352

 Mulliken charges:
               1
     1  C   -0.447290
     2  C   -0.304053
     3  C   -0.076036
     4  C   -0.152130
     5  C   -0.083322
     6  O   -0.526580
     7  N   -0.479777
     8  C   -0.302638
     9  C   -0.122055
    10  C   -0.229746
    11  C    0.294079
    12  C   -0.044170
    13  C    0.254176
    14  C   -0.236107
    15  H    0.173083
    16  H    0.173405
    17  H    0.173887
    18  F   -0.213990
    19  F   -0.209134
    20  H    0.135217
    21  H    0.156814
    22  H    0.153358
    23  H    0.168727
    24  H    0.158057
    25  H    0.154870
    26  H    0.124005
    27  H    0.131427
    28  H    0.356448
    29  H    0.200096
    30  H    0.186577
    31  H    0.188148
    32  C   -0.485061
    33  H    0.159599
    34  H    0.155329
    35  H    0.159427
    36  H    0.255361
 Sum of Mulliken charges =   0.00000

 Dipole moment (field-independent basis, Debye):
    X=              0.8215    Y=             -3.6691    Z=              0.8811  Tot=              3.8618
 Quadrupole moment (field-independent basis, Debye-Ang):
   XX=            -89.5169   YY=           -117.1445   ZZ=            -97.0913
   XY=              5.1931   XZ=              5.3254   YZ=              4.1001

 Normal termination of Gaussian 09 at Wed Jun 26 12:23:47 2019.
