 Gaussian 09, Revision D.01,
 Gaussian 09:  ES64L-G09RevD.01 24-Apr-2013

 --------------------------------------------------------
 # m062x/def2tzvp int=ultrafine scrf=(solvent=chloroform)
 --------------------------------------------------------

 ------------
 AT3_1ginp001
 ------------
 Symbolic Z-matrix:
 Charge =  0 Multiplicity = 1

                         Standard orientation:
 ---------------------------------------------------------------------
 Center     Atomic      Atomic             Coordinates (Angstroms)
 Number     Number       Type             X           Y           Z
 ---------------------------------------------------------------------
      1          6           0        2.388743    2.602337   -0.036321
      2          6           0        2.457719    1.515366    1.043350
      3          6           0        2.069699    0.091307    0.577101
      4          6           0        3.020255   -0.526975   -0.484182
      5          6           0        2.665898   -2.003879   -0.763278
      6          8           0        1.408831   -2.193270   -1.388075
      7          7           0        0.674775   -0.006396    0.075506
      8          6           0       -0.374714    0.245616    1.078191
      9          6           0       -4.296758   -0.039746   -0.746128
     10          6           0       -3.845512   -1.074727    0.073177
     11          6           0       -2.584190   -0.965349    0.647962
     12          6           0       -1.745229    0.133491    0.455535
     13          6           0       -2.250364    1.133758   -0.377211
     14          6           0       -3.498228    1.081411   -0.981776
     15          1           0       -5.276693   -0.107247   -1.206623
     16          1           0       -4.446888   -1.954950    0.268360
     17          1           0       -3.823525    1.896885   -1.617070
     18          9           0       -2.148860   -1.969050    1.442733
     19          9           0       -1.457904    2.213246   -0.606671
     20          1           0        1.373633    2.718903   -0.431767
     21          1           0        2.683645    3.571250    0.378217
     22          1           0        3.054258    2.389434   -0.879524
     23          1           0        3.465464    1.481393    1.470208
     24          1           0        1.803152    1.798900    1.876054
     25          1           0        2.885446    0.015911   -1.431089
     26          1           0        2.732967   -2.563799    0.188603
     27          1           0        3.424618   -2.429786   -1.431480
     28          1           0        0.809016   -1.592161   -0.892455
     29          1           0       -0.274628   -0.501866    1.868591
     30          1           0       -0.285401    1.235121    1.548080
     31          1           0        2.114722   -0.561248    1.461897
     32          6           0        4.497363   -0.429422   -0.072522
     33          1           0        5.130641   -0.945470   -0.801381
     34          1           0        4.844140    0.605165   -0.014118
     35          1           0        4.670445   -0.895739    0.904924
     36          1           0        0.553708    0.653337   -0.691317
 ---------------------------------------------------------------------

 SCF Done:  E(RM062X) =  -836.462219977     A.U. after   12 cycles

 The electronic state is 1-A.
 Alpha  occ. eigenvalues --  -25.27251 -25.26877 -19.59855 -14.75197 -10.64507
 Alpha  occ. eigenvalues --  -10.64505 -10.58257 -10.57333 -10.57262 -10.57147
 Alpha  occ. eigenvalues --  -10.56727 -10.55947 -10.55874 -10.54077 -10.53409
 Alpha  occ. eigenvalues --  -10.52708 -10.52707  -1.38390  -1.38216  -1.12261
 Alpha  occ. eigenvalues --   -1.03059  -0.98498  -0.90929  -0.87653  -0.86258
 Alpha  occ. eigenvalues --   -0.85397  -0.79251  -0.75548  -0.75075  -0.72958
 Alpha  occ. eigenvalues --   -0.71250  -0.68654  -0.65632  -0.64384  -0.62429
 Alpha  occ. eigenvalues --   -0.59023  -0.58164  -0.57940  -0.57585  -0.57416
 Alpha  occ. eigenvalues --   -0.55082  -0.54942  -0.54401  -0.52204  -0.50632
 Alpha  occ. eigenvalues --   -0.50060  -0.49117  -0.48377  -0.47847  -0.47498
 Alpha  occ. eigenvalues --   -0.46706  -0.45081  -0.44602  -0.44207  -0.43334
 Alpha  occ. eigenvalues --   -0.41946  -0.41742  -0.40812  -0.39924  -0.38744
 Alpha  occ. eigenvalues --   -0.37606  -0.33180  -0.32080  -0.31481  -0.30304
 Alpha virt. eigenvalues --    0.00229   0.01648   0.05810   0.07273   0.07663
 Alpha virt. eigenvalues --    0.08948   0.09228   0.11005   0.11472   0.11965
 Alpha virt. eigenvalues --    0.12309   0.12517   0.13157   0.13773   0.14092

 Mulliken charges:
               1
     1  C   -0.459694
     2  C   -0.315363
     3  C   -0.054015
     4  C   -0.165436
     5  C   -0.069140
     6  O   -0.531411
     7  N   -0.491550
     8  C   -0.248305
     9  C   -0.111686
    10  C   -0.251302
    11  C    0.310322
    12  C   -0.077903
    13  C    0.293759
    14  C   -0.248680
    15  H    0.173321
    16  H    0.172790
    17  H    0.174568
    18  F   -0.213184
    19  F   -0.215341
    20  H    0.143174
    21  H    0.156333
    22  H    0.153821
    23  H    0.170621
    24  H    0.162529
    25  H    0.154927
    26  H    0.118144
    27  H    0.128532
    28  H    0.357431
    29  H    0.167365
    30  H    0.186085
    31  H    0.179135
    32  C   -0.486803
    33  H    0.155849
    34  H    0.159870
    35  H    0.160675
    36  H    0.260561
 Sum of Mulliken charges =   0.00000

 Dipole moment (field-independent basis, Debye):
    X=             -0.9887    Y=              3.2002    Z=              1.6441  Tot=              3.7313
 Quadrupole moment (field-independent basis, Debye-Ang):
   XX=            -82.6852   YY=           -111.6992   ZZ=           -105.4458
   XY=              3.2364   XZ=              7.5649   YZ=             -4.8288

 Normal termination of Gaussian 09 at Wed Jun 26 12:22:44 2019.
