 Gaussian 09, Revision D.01,
 Gaussian 09:  ES64L-G09RevD.01 24-Apr-2013

 --------------------------------------------------------
 # m062x/def2tzvp int=ultrafine scrf=(solvent=chloroform)
 --------------------------------------------------------

 ------------
 AT3_1ginp016
 ------------
 Symbolic Z-matrix:
 Charge =  0 Multiplicity = 1

                         Standard orientation:
 ---------------------------------------------------------------------
 Center     Atomic      Atomic             Coordinates (Angstroms)
 Number     Number       Type             X           Y           Z
 ---------------------------------------------------------------------
      1          6           0       -2.185501    2.958215    0.005769
      2          6           0       -2.554659    1.627862    0.675738
      3          6           0       -1.914369    0.400350    0.003331
      4          6           0       -2.584324   -0.945687    0.388585
      5          6           0       -3.949397   -1.139275   -0.288632
      6          8           0       -3.902720   -1.068420   -1.713731
      7          7           0       -0.476836    0.351433    0.345019
      8          6           0        0.363560   -0.203568   -0.723785
      9          6           0        4.565026   -0.064637    0.356644
     10          6           0        3.919937   -1.298103    0.268579
     11          6           0        2.572624   -1.321176   -0.075683
     12          6           0        1.826580   -0.173214   -0.346585
     13          6           0        2.527946    1.029445   -0.239722
     14          6           0        3.869695    1.119435    0.102585
     15          1           0        5.615192   -0.024645    0.625938
     16          1           0        4.437364   -2.230748    0.461344
     17          1           0        4.344810    2.091432    0.166058
     18          9           0        1.954707   -2.522210   -0.162633
     19          9           0        1.839818    2.176360   -0.481506
     20          1           0       -2.539216    2.985090   -1.030578
     21          1           0       -2.636916    3.802502    0.536249
     22          1           0       -1.103069    3.129063   -0.014086
     23          1           0       -2.258870    1.647874    1.732213
     24          1           0       -3.644924    1.521661    0.663218
     25          1           0       -1.929588   -1.739997   -0.002401
     26          1           0       -4.649292   -0.355057    0.020630
     27          1           0       -4.380266   -2.097574    0.040180
     28          1           0       -3.331826   -1.786891   -2.018933
     29          1           0        0.072459   -1.240968   -0.903341
     30          1           0        0.232953    0.333911   -1.679936
     31          1           0       -2.046252    0.514276   -1.086451
     32          6           0       -2.698286   -1.157299    1.904260
     33          1           0       -3.433783   -0.481808    2.355185
     34          1           0       -3.009209   -2.181973    2.134150
     35          1           0       -1.732392   -0.977490    2.382740
     36          1           0       -0.151270    1.297228    0.523287
 ---------------------------------------------------------------------

 SCF Done:  E(RM062X) =  -836.456202926     A.U. after   12 cycles

 The electronic state is 1-A.
 Alpha  occ. eigenvalues --  -25.27054 -25.26734 -19.62647 -14.73569 -10.64309
 Alpha  occ. eigenvalues --  -10.64289 -10.57975 -10.57562 -10.57015 -10.56581
 Alpha  occ. eigenvalues --  -10.56192 -10.55808 -10.55750 -10.53710 -10.53194
 Alpha  occ. eigenvalues --  -10.52450 -10.52026  -1.38192  -1.38047  -1.14303
 Alpha  occ. eigenvalues --   -1.02159  -0.98271  -0.90522  -0.87378  -0.86087
 Alpha  occ. eigenvalues --   -0.85435  -0.78358  -0.76336  -0.74379  -0.72739
 Alpha  occ. eigenvalues --   -0.70603  -0.69389  -0.65351  -0.63428  -0.62285
 Alpha  occ. eigenvalues --   -0.58737  -0.57934  -0.57581  -0.57427  -0.57237
 Alpha  occ. eigenvalues --   -0.55499  -0.54730  -0.54078  -0.53443  -0.50880
 Alpha  occ. eigenvalues --   -0.49838  -0.49002  -0.48090  -0.47673  -0.47191
 Alpha  occ. eigenvalues --   -0.45836  -0.45086  -0.44354  -0.43856  -0.43037
 Alpha  occ. eigenvalues --   -0.42475  -0.41744  -0.40711  -0.39005  -0.38098
 Alpha  occ. eigenvalues --   -0.36773  -0.34869  -0.31856  -0.31336  -0.29618
 Alpha virt. eigenvalues --    0.00444   0.01797   0.05786   0.06937   0.07692
 Alpha virt. eigenvalues --    0.08430   0.09199   0.10799   0.11662   0.11926
 Alpha virt. eigenvalues --    0.12576   0.12831   0.13335   0.13844   0.13980

 Mulliken charges:
               1
     1  C   -0.429830
     2  C   -0.355139
     3  C   -0.008367
     4  C   -0.188846
     5  C   -0.079560
     6  O   -0.501710
     7  N   -0.388550
     8  C   -0.226575
     9  C   -0.114496
    10  C   -0.253870
    11  C    0.305983
    12  C   -0.089206
    13  C    0.295162
    14  C   -0.252134
    15  H    0.172506
    16  H    0.171761
    17  H    0.173728
    18  F   -0.216220
    19  F   -0.218830
    20  H    0.148118
    21  H    0.151312
    22  H    0.134278
    23  H    0.170379
    24  H    0.146714
    25  H    0.143651
    26  H    0.139398
    27  H    0.139521
    28  H    0.332318
    29  H    0.157475
    30  H    0.167790
    31  H    0.167684
    32  C   -0.486066
    33  H    0.157178
    34  H    0.154758
    35  H    0.160784
    36  H    0.218900
 Sum of Mulliken charges =   0.00000

 Dipole moment (field-independent basis, Debye):
    X=              2.2311    Y=             -0.2785    Z=              0.5951  Tot=              2.3259
 Quadrupole moment (field-independent basis, Debye-Ang):
   XX=            -92.7947   YY=            -99.9498   ZZ=           -107.0880
   XY=              2.1651   XZ=             -3.2474   YZ=              2.8500

 Normal termination of Gaussian 09 at Wed Jun 26 12:21:51 2019.
