 Gaussian 09, Revision D.01,
 Gaussian 09:  ES64L-G09RevD.01 24-Apr-2013

 --------------------------------------------------------
 # m062x/def2tzvp int=ultrafine scrf=(solvent=chloroform)
 --------------------------------------------------------

 ------------
 AT3_2ginp008
 ------------
 Symbolic Z-matrix:
 Charge =  0 Multiplicity = 1

                         Standard orientation:
 ---------------------------------------------------------------------
 Center     Atomic      Atomic             Coordinates (Angstroms)
 Number     Number       Type             X           Y           Z
 ---------------------------------------------------------------------
      1          6           0       -2.052027    3.195727   -0.207210
      2          6           0       -2.553547    1.779551   -0.519431
      3          6           0       -1.894874    0.683262    0.340024
      4          6           0       -2.672649   -0.660661    0.348941
      5          6           0       -2.915637   -1.201740   -1.060853
      6          8           0       -3.362227   -2.555925   -0.944715
      7          7           0       -0.512839    0.466164   -0.129315
      8          6           0        0.411094    0.028955    0.925332
      9          6           0        4.465061   -0.314317   -0.586594
     10          6           0        3.865270    0.941985   -0.476791
     11          6           0        2.567801    1.006921    0.010857
     12          6           0        1.821313   -0.107080    0.399922
     13          6           0        2.471441   -1.334583    0.262377
     14          6           0        3.770679   -1.465858   -0.216516
     15          1           0        5.478883   -0.395069   -0.964222
     16          1           0        4.380149    1.852822   -0.759350
     17          1           0        4.213782   -2.452042   -0.292767
     18          9           0        1.971323    2.224163    0.113434
     19          9           0        1.806214   -2.455834    0.623696
     20          1           0       -2.531259    3.932523   -0.859392
     21          1           0       -2.276475    3.470186    0.829396
     22          1           0       -0.969563    3.297701   -0.344853
     23          1           0       -3.637946    1.752137   -0.370598
     24          1           0       -2.380001    1.549792   -1.578596
     25          1           0       -2.023559   -1.397699    0.841402
     26          1           0       -1.980466   -1.141912   -1.633244
     27          1           0       -3.671761   -0.590937   -1.578821
     28          1           0       -3.528609   -2.884651   -1.837568
     29          1           0        0.418480    0.721446    1.786242
     30          1           0        0.086525   -0.942157    1.304034
     31          1           0       -1.890198    1.047883    1.385680
     32          6           0       -3.971830   -0.583255    1.162310
     33          1           0       -4.682596    0.129704    0.729126
     34          1           0       -4.459997   -1.560502    1.186354
     35          1           0       -3.774919   -0.273327    2.194363
     36          1           0       -0.153180    1.339961   -0.502632
 ---------------------------------------------------------------------

 SCF Done:  E(RM062X) =  -836.455612410     A.U. after   12 cycles

 The electronic state is 1-A.
 Alpha  occ. eigenvalues --  -25.27075 -25.26642 -19.62152 -14.73677 -10.64284
 Alpha  occ. eigenvalues --  -10.64277 -10.57552 -10.57315 -10.57006 -10.56643
 Alpha  occ. eigenvalues --  -10.56565 -10.55797 -10.55720 -10.53447 -10.53410
 Alpha  occ. eigenvalues --  -10.52645 -10.51861  -1.38208  -1.37974  -1.13754
 Alpha  occ. eigenvalues --   -1.02318  -0.98273  -0.90585  -0.87317  -0.86064
 Alpha  occ. eigenvalues --   -0.85489  -0.78412  -0.76355  -0.74180  -0.72713
 Alpha  occ. eigenvalues --   -0.70503  -0.69037  -0.65318  -0.62571  -0.62173
 Alpha  occ. eigenvalues --   -0.59010  -0.58501  -0.57933  -0.57391  -0.57218
 Alpha  occ. eigenvalues --   -0.55191  -0.54762  -0.54275  -0.52910  -0.51321
 Alpha  occ. eigenvalues --   -0.49732  -0.49132  -0.48009  -0.47803  -0.47320
 Alpha  occ. eigenvalues --   -0.45581  -0.44709  -0.44067  -0.43730  -0.43387
 Alpha  occ. eigenvalues --   -0.42363  -0.41438  -0.40196  -0.39113  -0.38229
 Alpha  occ. eigenvalues --   -0.36420  -0.34656  -0.31852  -0.31312  -0.29826
 Alpha virt. eigenvalues --    0.00454   0.01816   0.06359   0.07168   0.07954
 Alpha virt. eigenvalues --    0.08458   0.09234   0.10200   0.11479   0.11791
 Alpha virt. eigenvalues --    0.12269   0.12589   0.13475   0.13878   0.14496

 Mulliken charges:
               1
     1  C   -0.430502
     2  C   -0.352760
     3  C   -0.076283
     4  C   -0.081777
     5  C   -0.121874
     6  O   -0.508465
     7  N   -0.390605
     8  C   -0.218009
     9  C   -0.114800
    10  C   -0.252067
    11  C    0.294537
    12  C   -0.095002
    13  C    0.306760
    14  C   -0.253369
    15  H    0.172463
    16  H    0.173584
    17  H    0.172049
    18  F   -0.219840
    19  F   -0.214012
    20  H    0.152214
    21  H    0.146176
    22  H    0.135960
    23  H    0.152649
    24  H    0.169253
    25  H    0.130541
    26  H    0.141160
    27  H    0.140838
    28  H    0.333000
    29  H    0.163137
    30  H    0.162830
    31  H    0.167674
    32  C   -0.450832
    33  H    0.137649
    34  H    0.161723
    35  H    0.148729
    36  H    0.217268
 Sum of Mulliken charges =   0.00000

 Dipole moment (field-independent basis, Debye):
    X=              1.6348    Y=              1.8305    Z=             -1.3619  Tot=              2.8068
 Quadrupole moment (field-independent basis, Debye-Ang):
   XX=            -88.4884   YY=           -106.7442   ZZ=            -98.8578
   XY=             -5.4420   XZ=              1.0178   YZ=              3.3450

 Normal termination of Gaussian 09 at Wed Jun 26 12:22:06 2019.
