 Gaussian 09, Revision D.01,
 Gaussian 09:  ES64L-G09RevD.01 24-Apr-2013

 --------------------------------------------------------
 # m062x/def2tzvp int=ultrafine scrf=(solvent=chloroform)
 --------------------------------------------------------

 ------------
 AT3_1ginp013
 ------------
 Symbolic Z-matrix:
 Charge =  0 Multiplicity = 1

                         Standard orientation:
 ---------------------------------------------------------------------
 Center     Atomic      Atomic             Coordinates (Angstroms)
 Number     Number       Type             X           Y           Z
 ---------------------------------------------------------------------
      1          6           0        1.821152    2.862177   -1.526936
      2          6           0        2.426034    1.474183   -1.295277
      3          6           0        1.819978    0.734691   -0.085744
      4          6           0        2.604597   -0.547358    0.328950
      5          6           0        4.044012   -0.229528    0.742588
      6          8           0        4.551051   -1.347164    1.474696
      7          7           0        0.391309    0.509184   -0.355053
      8          6           0       -0.394153   -0.003422    0.772250
      9          6           0       -4.563425   -0.432270   -0.352448
     10          6           0       -4.190861    0.589272    0.521255
     11          6           0       -2.849485    0.712077    0.867532
     12          6           0       -1.850991   -0.139569    0.393228
     13          6           0       -2.285943   -1.139009   -0.478840
     14          6           0       -3.607553   -1.311586   -0.865553
     15          1           0       -5.604351   -0.543866   -0.637111
     16          1           0       -4.913949    1.284413    0.931934
     17          1           0       -3.868788   -2.111874   -1.548090
     18          9           0       -2.494874    1.703272    1.717768
     19          9           0       -1.345640   -1.983585   -0.979639
     20          1           0        2.255131    3.338031   -2.412453
     21          1           0        0.739382    2.794811   -1.663770
     22          1           0        2.008720    3.519546   -0.669923
     23          1           0        2.291411    0.860856   -2.196497
     24          1           0        3.508648    1.570698   -1.155052
     25          1           0        2.129112   -0.924879    1.244415
     26          1           0        4.061503    0.681513    1.362842
     27          1           0        4.667134   -0.036376   -0.143345
     28          1           0        5.489880   -1.189788    1.639386
     29          1           0       -0.047235   -0.979662    1.147918
     30          1           0       -0.306775    0.705581    1.599963
     31          1           0        1.862404    1.419653    0.775178
     32          6           0        2.558636   -1.672942   -0.714553
     33          1           0        3.012853   -1.365167   -1.663234
     34          1           0        3.111136   -2.541711   -0.347668
     35          1           0        1.531963   -1.993523   -0.919372
     36          1           0        0.296881   -0.132704   -1.139192
 ---------------------------------------------------------------------

 SCF Done:  E(RM062X) =  -836.455803801     A.U. after   12 cycles

 The electronic state is 1-A.
 Alpha  occ. eigenvalues --  -25.26951 -25.26610 -19.62618 -14.73528 -10.64197
 Alpha  occ. eigenvalues --  -10.64185 -10.58148 -10.57507 -10.56893 -10.56606
 Alpha  occ. eigenvalues --  -10.56490 -10.55725 -10.55663 -10.53656 -10.53017
 Alpha  occ. eigenvalues --  -10.52044 -10.51706  -1.38070  -1.37928  -1.14279
 Alpha  occ. eigenvalues --   -1.02194  -0.98192  -0.90467  -0.87255  -0.85992
 Alpha  occ. eigenvalues --   -0.85256  -0.78282  -0.77037  -0.73770  -0.72633
 Alpha  occ. eigenvalues --   -0.70399  -0.68700  -0.65254  -0.63636  -0.61918
 Alpha  occ. eigenvalues --   -0.59551  -0.58557  -0.57686  -0.57319  -0.57141
 Alpha  occ. eigenvalues --   -0.55010  -0.54439  -0.54026  -0.53049  -0.51264
 Alpha  occ. eigenvalues --   -0.50170  -0.48741  -0.48021  -0.47484  -0.47011
 Alpha  occ. eigenvalues --   -0.45854  -0.44384  -0.44155  -0.43855  -0.43165
 Alpha  occ. eigenvalues --   -0.42385  -0.41246  -0.39885  -0.39226  -0.38249
 Alpha  occ. eigenvalues --   -0.37007  -0.35133  -0.31706  -0.31244  -0.29318
 Alpha virt. eigenvalues --    0.00597   0.01887   0.06199   0.07179   0.07932
 Alpha virt. eigenvalues --    0.08270   0.09015   0.10128   0.11677   0.11945
 Alpha virt. eigenvalues --    0.12080   0.12904   0.13624   0.13765   0.14270

 Mulliken charges:
               1
     1  C   -0.428353
     2  C   -0.277260
     3  C   -0.147691
     4  C   -0.050693
     5  C   -0.149697
     6  O   -0.503876
     7  N   -0.383500
     8  C   -0.262419
     9  C   -0.114638
    10  C   -0.254408
    11  C    0.303494
    12  C   -0.075789
    13  C    0.294602
    14  C   -0.249690
    15  H    0.172085
    16  H    0.171274
    17  H    0.173335
    18  F   -0.215150
    19  F   -0.217021
    20  H    0.143674
    21  H    0.146810
    22  H    0.135660
    23  H    0.151062
    24  H    0.142850
    25  H    0.147531
    26  H    0.139050
    27  H    0.142104
    28  H    0.334585
    29  H    0.177788
    30  H    0.161802
    31  H    0.178155
    32  C   -0.490041
    33  H    0.153315
    34  H    0.164556
    35  H    0.151199
    36  H    0.235296
 Sum of Mulliken charges =   0.00000

 Dipole moment (field-independent basis, Debye):
    X=              0.1194    Y=              0.2272    Z=             -0.6609  Tot=              0.7090
 Quadrupole moment (field-independent basis, Debye-Ang):
   XX=            -74.4639   YY=           -109.9994   ZZ=           -104.4835
   XY=              7.5316   XZ=              3.1649   YZ=              3.0554

 Normal termination of Gaussian 09 at Wed Jun 26 12:22:16 2019.
