 Gaussian 09, Revision D.01,
 Gaussian 09:  ES64L-G09RevD.01 24-Apr-2013

 --------------------------------------------------------
 # m062x/def2tzvp int=ultrafine scrf=(solvent=chloroform)
 --------------------------------------------------------

 ------------
 AT3_1ginp019
 ------------
 Symbolic Z-matrix:
 Charge =  0 Multiplicity = 1

                         Standard orientation:
 ---------------------------------------------------------------------
 Center     Atomic      Atomic             Coordinates (Angstroms)
 Number     Number       Type             X           Y           Z
 ---------------------------------------------------------------------
      1          6           0       -1.964583    2.708413   -0.946085
      2          6           0       -1.416988    1.889803    0.228783
      3          6           0       -1.209926    0.389640   -0.069234
      4          6           0       -2.475306   -0.334861   -0.597095
      5          6           0       -3.603300   -0.396129    0.436960
      6          8           0       -4.778610   -0.876758   -0.221312
      7          7           0       -0.723803   -0.302068    1.140448
      8          6           0        0.604820    0.073996    1.638122
      9          6           0        3.888442   -0.411827   -1.178849
     10          6           0        3.528078    0.869365   -0.761647
     11          6           0        2.476563    1.001397    0.139063
     12          6           0        1.758162   -0.077340    0.655425
     13          6           0        2.164297   -1.331980    0.195210
     14          6           0        3.204421   -1.532264   -0.701337
     15          1           0        4.705731   -0.539386   -1.880799
     16          1           0        4.041564    1.754746   -1.118389
     17          1           0        3.463340   -2.538666   -1.009339
     18          9           0        2.132723    2.250926    0.542066
     19          9           0        1.491386   -2.414895    0.663726
     20          1           0       -1.365051    2.556217   -1.851204
     21          1           0       -3.000661    2.451706   -1.187069
     22          1           0       -1.939965    3.777347   -0.711656
     23          1           0       -0.447733    2.313943    0.511135
     24          1           0       -2.066706    2.002145    1.104829
     25          1           0       -2.852174    0.264419   -1.434507
     26          1           0       -3.782687    0.601417    0.862633
     27          1           0       -3.316452   -1.057416    1.266390
     28          1           0       -5.465346   -0.983119    0.449465
     29          1           0        0.585012    1.103909    1.996338
     30          1           0        0.806325   -0.558517    2.508845
     31          1           0       -0.467891    0.334021   -0.889024
     32          6           0       -2.162482   -1.731861   -1.159324
     33          1           0       -3.059145   -2.163730   -1.609475
     34          1           0       -1.382007   -1.681638   -1.925984
     35          1           0       -1.826925   -2.430311   -0.383150
     36          1           0       -0.703916   -1.300940    0.956231
 ---------------------------------------------------------------------

 SCF Done:  E(RM062X) =  -836.457006816     A.U. after   12 cycles

 The electronic state is 1-A.
 Alpha  occ. eigenvalues --  -25.26993 -25.26789 -19.62316 -14.73719 -10.64314
 Alpha  occ. eigenvalues --  -10.64283 -10.57612 -10.57572 -10.56784 -10.56619
 Alpha  occ. eigenvalues --  -10.56535 -10.55843 -10.55813 -10.53755 -10.52800
 Alpha  occ. eigenvalues --  -10.52263 -10.52090  -1.38149  -1.37993  -1.13957
 Alpha  occ. eigenvalues --   -1.02168  -0.98232  -0.90419  -0.87165  -0.86098
 Alpha  occ. eigenvalues --   -0.85407  -0.78561  -0.76630  -0.74396  -0.72689
 Alpha  occ. eigenvalues --   -0.70671  -0.68359  -0.65367  -0.62778  -0.61673
 Alpha  occ. eigenvalues --   -0.59510  -0.58547  -0.57700  -0.57426  -0.57220
 Alpha  occ. eigenvalues --   -0.55461  -0.54690  -0.54387  -0.52983  -0.51311
 Alpha  occ. eigenvalues --   -0.50121  -0.49155  -0.47957  -0.47169  -0.46926
 Alpha  occ. eigenvalues --   -0.45669  -0.44676  -0.44228  -0.43760  -0.43122
 Alpha  occ. eigenvalues --   -0.42575  -0.41779  -0.40494  -0.38288  -0.37922
 Alpha  occ. eigenvalues --   -0.36846  -0.34695  -0.31940  -0.31392  -0.29719
 Alpha virt. eigenvalues --    0.00343   0.01701   0.06065   0.07049   0.07709
 Alpha virt. eigenvalues --    0.08382   0.09120   0.10029   0.11876   0.12068
 Alpha virt. eigenvalues --    0.12212   0.13010   0.13237   0.13911   0.14374

 Mulliken charges:
               1
     1  C   -0.464414
     2  C   -0.282483
     3  C   -0.061894
     4  C   -0.163839
     5  C   -0.089600
     6  O   -0.508877
     7  N   -0.388690
     8  C   -0.357805
     9  C   -0.122517
    10  C   -0.236320
    11  C    0.298358
    12  C   -0.073483
    13  C    0.292141
    14  C   -0.242169
    15  H    0.172721
    16  H    0.173344
    17  H    0.173458
    18  F   -0.217821
    19  F   -0.220140
    20  H    0.151078
    21  H    0.153055
    22  H    0.152079
    23  H    0.147041
    24  H    0.158163
    25  H    0.160824
    26  H    0.133605
    27  H    0.136558
    28  H    0.334546
    29  H    0.203422
    30  H    0.194447
    31  H    0.173786
    32  C   -0.465760
    33  H    0.164592
    34  H    0.151974
    35  H    0.145016
    36  H    0.225606
 Sum of Mulliken charges =   0.00000

 Dipole moment (field-independent basis, Debye):
    X=              1.9802    Y=             -0.0444    Z=             -0.1577  Tot=              1.9869
 Quadrupole moment (field-independent basis, Debye-Ang):
   XX=            -92.6003   YY=           -104.3077   ZZ=           -102.0714
   XY=             -2.7075   XZ=            -13.3083   YZ=             -0.9321

 Normal termination of Gaussian 09 at Wed Jun 26 12:22:42 2019.
