 Gaussian 09, Revision D.01,
 Gaussian 09:  ES64L-G09RevD.01 24-Apr-2013

 --------------------------------------------------------
 # m062x/def2tzvp int=ultrafine scrf=(solvent=chloroform)
 --------------------------------------------------------

 ------------
 AT3_1ginp017
 ------------
 Symbolic Z-matrix:
 Charge =  0 Multiplicity = 1

                         Standard orientation:
 ---------------------------------------------------------------------
 Center     Atomic      Atomic             Coordinates (Angstroms)
 Number     Number       Type             X           Y           Z
 ---------------------------------------------------------------------
      1          6           0        2.091735    2.744660    0.005563
      2          6           0        2.199455    1.702242    1.125209
      3          6           0        1.894464    0.243602    0.697910
      4          6           0        2.923343   -0.350953   -0.299405
      5          6           0        2.672116   -1.858384   -0.490764
      6          8           0        3.505352   -2.442592   -1.494986
      7          7           0        0.543390    0.051186    0.137628
      8          6           0       -0.562608    0.354942    1.052596
      9          6           0       -4.379099   -0.359140   -0.885122
     10          6           0       -3.601041    0.738718   -1.258570
     11          6           0       -2.387825    0.930350   -0.612519
     12          6           0       -1.895538    0.092977    0.390045
     13          6           0       -2.713406   -0.989831    0.715858
     14          6           0       -3.940343   -1.234347    0.108418
     15          1           0       -5.332423   -0.533259   -1.372800
     16          1           0       -3.916461    1.432831   -2.028820
     17          1           0       -4.526007   -2.093206    0.415144
     18          9           0       -1.617891    1.990736   -0.974964
     19          9           0       -2.294942   -1.840147    1.681480
     20          1           0        2.792105    2.544503   -0.812529
     21          1           0        1.082558    2.777755   -0.419623
     22          1           0        2.313507    3.745490    0.389051
     23          1           0        3.198296    1.740257    1.572752
     24          1           0        1.510241    1.976975    1.932691
     25          1           0        2.756321    0.129024   -1.277727
     26          1           0        1.611878   -2.030077   -0.704449
     27          1           0        2.916357   -2.389212    0.437709
     28          1           0        3.230489   -2.071850   -2.344663
     29          1           0       -0.467989   -0.291290    1.929300
     30          1           0       -0.561184    1.394511    1.417940
     31          1           0        1.937070   -0.369544    1.611482
     32          6           0        4.382955   -0.111052    0.109319
     33          1           0        4.561849   -0.447763    1.138019
     34          1           0        5.042581   -0.683165   -0.548058
     35          1           0        4.669825    0.941857    0.044668
     36          1           0        0.444688    0.630579   -0.693474
 ---------------------------------------------------------------------

 SCF Done:  E(RM062X) =  -836.456529917     A.U. after   12 cycles

 The electronic state is 1-A.
 Alpha  occ. eigenvalues --  -25.27081 -25.26705 -19.62212 -14.73682 -10.64306
 Alpha  occ. eigenvalues --  -10.64304 -10.57652 -10.57209 -10.57013 -10.56780
 Alpha  occ. eigenvalues --  -10.56591 -10.55831 -10.55758 -10.53849 -10.53035
 Alpha  occ. eigenvalues --  -10.52487 -10.52000  -1.38196  -1.38030  -1.13808
 Alpha  occ. eigenvalues --   -1.02318  -0.98300  -0.90585  -0.87214  -0.86100
 Alpha  occ. eigenvalues --   -0.85120  -0.78773  -0.76200  -0.74662  -0.72761
 Alpha  occ. eigenvalues --   -0.70874  -0.68298  -0.65403  -0.64197  -0.62116
 Alpha  occ. eigenvalues --   -0.58731  -0.58023  -0.57433  -0.57283  -0.57181
 Alpha  occ. eigenvalues --   -0.55212  -0.54816  -0.54477  -0.53240  -0.50609
 Alpha  occ. eigenvalues --   -0.49701  -0.48844  -0.48341  -0.47945  -0.47182
 Alpha  occ. eigenvalues --   -0.46092  -0.44693  -0.44034  -0.43246  -0.42962
 Alpha  occ. eigenvalues --   -0.42889  -0.41197  -0.40811  -0.39790  -0.37910
 Alpha  occ. eigenvalues --   -0.37315  -0.34666  -0.31833  -0.31351  -0.29265
 Alpha virt. eigenvalues --    0.00474   0.01780   0.05923   0.06848   0.07848
 Alpha virt. eigenvalues --    0.08525   0.09398   0.10335   0.11310   0.11984
 Alpha virt. eigenvalues --    0.12310   0.12904   0.12980   0.13719   0.14257

 Mulliken charges:
               1
     1  C   -0.467935
     2  C   -0.299826
     3  C   -0.115625
     4  C   -0.177908
     5  C   -0.065576
     6  O   -0.507058
     7  N   -0.385723
     8  C   -0.260720
     9  C   -0.115013
    10  C   -0.248884
    11  C    0.290436
    12  C   -0.077072
    13  C    0.304325
    14  C   -0.253635
    15  H    0.172439
    16  H    0.173486
    17  H    0.171718
    18  F   -0.217173
    19  F   -0.214665
    20  H    0.151422
    21  H    0.145351
    22  H    0.155262
    23  H    0.168696
    24  H    0.163090
    25  H    0.155773
    26  H    0.149606
    27  H    0.134282
    28  H    0.329067
    29  H    0.162365
    30  H    0.175925
    31  H    0.170944
    32  C   -0.472917
    33  H    0.156669
    34  H    0.158509
    35  H    0.154711
    36  H    0.235652
 Sum of Mulliken charges =   0.00000

 Dipole moment (field-independent basis, Debye):
    X=             -2.5689    Y=              2.4068    Z=             -0.6473  Tot=              3.5792
 Quadrupole moment (field-independent basis, Debye-Ang):
   XX=            -97.5990   YY=           -111.7106   ZZ=            -97.8914
   XY=             10.4184   XZ=              6.7622   YZ=             -0.4244

 Normal termination of Gaussian 09 at Wed Jun 26 12:21:16 2019.
