 Gaussian 09, Revision D.01,
 Gaussian 09:  ES64L-G09RevD.01 24-Apr-2013

 --------------------------------------------------------
 # m062x/def2tzvp int=ultrafine scrf=(solvent=chloroform)
 --------------------------------------------------------

 ------------
 AT3_1ginp009
 ------------
 Symbolic Z-matrix:
 Charge =  0 Multiplicity = 1

                         Standard orientation:
 ---------------------------------------------------------------------
 Center     Atomic      Atomic             Coordinates (Angstroms)
 Number     Number       Type             X           Y           Z
 ---------------------------------------------------------------------
      1          6           0       -2.187260    2.964984    0.038773
      2          6           0       -2.552485    1.626662    0.695052
      3          6           0       -1.913467    0.406928    0.007079
      4          6           0       -2.580586   -0.945379    0.379857
      5          6           0       -3.939044   -1.136049   -0.298039
      6          8           0       -3.756315   -1.138262   -1.714294
      7          7           0       -0.476031    0.354546    0.348462
      8          6           0        0.360944   -0.208785   -0.719312
      9          6           0        4.566471   -0.063718    0.346259
     10          6           0        3.919979   -1.297254    0.271096
     11          6           0        2.571287   -1.322359   -0.068093
     12          6           0        1.825004   -0.176185   -0.346176
     13          6           0        2.527930    1.026641   -0.251934
     14          6           0        3.871005    1.118646    0.084729
     15          1           0        5.617693   -0.022282    0.611255
     16          1           0        4.437343   -2.228709    0.469775
     17          1           0        4.347021    2.090830    0.138061
     18          9           0        1.952692   -2.523518   -0.142097
     19          9           0        1.840122    2.172395   -0.500895
     20          1           0       -2.639916    3.802939    0.578306
     21          1           0       -1.105279    3.138670    0.019564
     22          1           0       -2.541419    3.002157   -0.997228
     23          1           0       -2.253193    1.636009    1.750647
     24          1           0       -3.642863    1.519141    0.685471
     25          1           0       -1.932018   -1.733868   -0.025355
     26          1           0       -4.635781   -0.339334    0.006961
     27          1           0       -4.375136   -2.089029    0.039869
     28          1           0       -4.629363   -1.189329   -2.124304
     29          1           0        0.067613   -1.246394   -0.892177
     30          1           0        0.228048    0.322760   -1.678293
     31          1           0       -2.044748    0.533814   -1.080844
     32          6           0       -2.693863   -1.166761    1.894015
     33          1           0       -1.730239   -0.977416    2.373257
     34          1           0       -3.437613   -0.503469    2.349877
     35          1           0       -2.990872   -2.196905    2.117299
     36          1           0       -0.147356    1.300573    0.520064
 ---------------------------------------------------------------------

 SCF Done:  E(RM062X) =  -836.455893987     A.U. after   12 cycles

 The electronic state is 1-A.
 Alpha  occ. eigenvalues --  -25.26945 -25.26564 -19.62557 -14.73400 -10.64171
 Alpha  occ. eigenvalues --  -10.64166 -10.57963 -10.57298 -10.56866 -10.56472
 Alpha  occ. eigenvalues --  -10.56005 -10.55701 -10.55632 -10.53463 -10.53125
 Alpha  occ. eigenvalues --  -10.52445 -10.51857  -1.38079  -1.37888  -1.14240
 Alpha  occ. eigenvalues --   -1.01972  -0.98141  -0.90427  -0.87306  -0.85963
 Alpha  occ. eigenvalues --   -0.85395  -0.78202  -0.76298  -0.74141  -0.72607
 Alpha  occ. eigenvalues --   -0.70367  -0.69014  -0.65213  -0.62441  -0.61972
 Alpha  occ. eigenvalues --   -0.58882  -0.58510  -0.57790  -0.57291  -0.57118
 Alpha  occ. eigenvalues --   -0.55355  -0.55029  -0.54352  -0.53519  -0.50731
 Alpha  occ. eigenvalues --   -0.49261  -0.48546  -0.48178  -0.47635  -0.47113
 Alpha  occ. eigenvalues --   -0.45858  -0.44265  -0.43932  -0.43811  -0.43129
 Alpha  occ. eigenvalues --   -0.42481  -0.41643  -0.40154  -0.38969  -0.37554
 Alpha  occ. eigenvalues --   -0.36674  -0.35203  -0.31724  -0.31215  -0.29476
 Alpha virt. eigenvalues --    0.00571   0.01915   0.06313   0.06942   0.07919
 Alpha virt. eigenvalues --    0.08407   0.09132   0.10827   0.11455   0.12041
 Alpha virt. eigenvalues --    0.12810   0.12926   0.13349   0.13968   0.14067

 Mulliken charges:
               1
     1  C   -0.428774
     2  C   -0.351846
     3  C   -0.052735
     4  C   -0.096794
     5  C   -0.108515
     6  O   -0.504631
     7  N   -0.392505
     8  C   -0.226220
     9  C   -0.114972
    10  C   -0.254228
    11  C    0.305680
    12  C   -0.088512
    13  C    0.294939
    14  C   -0.252727
    15  H    0.172068
    16  H    0.171450
    17  H    0.173196
    18  F   -0.215094
    19  F   -0.219430
    20  H    0.150842
    21  H    0.134810
    22  H    0.145956
    23  H    0.169633
    24  H    0.144075
    25  H    0.134506
    26  H    0.132045
    27  H    0.132025
    28  H    0.334875
    29  H    0.162698
    30  H    0.165978
    31  H    0.179528
    32  C   -0.485740
    33  H    0.161212
    34  H    0.154632
    35  H    0.155101
    36  H    0.217474
 Sum of Mulliken charges =   0.00000

 Dipole moment (field-independent basis, Debye):
    X=             -0.4528    Y=              0.8029    Z=              0.2260  Tot=              0.9491
 Quadrupole moment (field-independent basis, Debye-Ang):
   XX=            -71.7757   YY=           -103.9522   ZZ=           -106.2383
   XY=              1.7338   XZ=              4.0420   YZ=              0.4583

 Normal termination of Gaussian 09 at Wed Jun 26 12:22:20 2019.
