 Gaussian 09, Revision D.01,
 Gaussian 09:  ES64L-G09RevD.01 24-Apr-2013

 --------------------------------------------------------
 # m062x/def2tzvp int=ultrafine scrf=(solvent=chloroform)
 --------------------------------------------------------

 ------------
 AT3_2ginp002
 ------------
 Symbolic Z-matrix:
 Charge =  0 Multiplicity = 1

                         Standard orientation:
 ---------------------------------------------------------------------
 Center     Atomic      Atomic             Coordinates (Angstroms)
 Number     Number       Type             X           Y           Z
 ---------------------------------------------------------------------
      1          6           0        2.417837    2.930629    0.167177
      2          6           0        2.812456    1.480444    0.478662
      3          6           0        2.076616    0.438167   -0.383476
      4          6           0        2.724816   -0.974114   -0.368249
      5          6           0        2.803339   -1.582729    1.043249
      6          8           0        1.531670   -1.777832    1.642687
      7          7           0        0.667206    0.346491    0.081400
      8          6           0       -0.289837   -0.037452   -0.971266
      9          6           0       -4.364267    0.016730    0.514586
     10          6           0       -3.647427    1.210280    0.404493
     11          6           0       -2.347307    1.149257   -0.075184
     12          6           0       -1.708545   -0.033264   -0.453894
     13          6           0       -2.473050   -1.193537   -0.318199
     14          6           0       -3.781543   -1.197607    0.152739
     15          1           0       -5.383291    0.034453    0.886268
     16          1           0       -4.075191    2.166934    0.680575
     17          1           0       -4.317575   -2.136333    0.229882
     18          9           0       -1.635151    2.302552   -0.180035
     19          9           0       -1.914290   -2.372569   -0.672468
     20          1           0        2.958459    3.627190    0.815130
     21          1           0        2.654287    3.186576   -0.871387
     22          1           0        1.348283    3.118280    0.315048
     23          1           0        3.891070    1.371980    0.328366
     24          1           0        2.624289    1.263255    1.537488
     25          1           0        2.063902   -1.629528   -0.952064
     26          1           0        3.451756   -0.952016    1.676970
     27          1           0        3.293778   -2.563169    0.980819
     28          1           0        0.986780   -1.021691    1.330267
     29          1           0       -0.219636    0.636024   -1.841280
     30          1           0       -0.047151   -1.042107   -1.320807
     31          1           0        2.101921    0.795699   -1.429465
     32          6           0        4.100258   -0.988375   -1.049924
     33          1           0        4.856066   -0.453678   -0.464618
     34          1           0        4.454723   -2.015949   -1.178530
     35          1           0        4.057914   -0.524265   -2.041151
     36          1           0        0.380702    1.255142    0.435449
 ---------------------------------------------------------------------

 SCF Done:  E(RM062X) =  -836.461971615     A.U. after   12 cycles

 The electronic state is 1-A.
 Alpha  occ. eigenvalues --  -25.27351 -25.26820 -19.59958 -14.75176 -10.64539
 Alpha  occ. eigenvalues --  -10.64513 -10.58247 -10.57321 -10.57319 -10.57116
 Alpha  occ. eigenvalues --  -10.56740 -10.55973 -10.55874 -10.53975 -10.53736
 Alpha  occ. eigenvalues --  -10.52908 -10.52696  -1.38481  -1.38175  -1.12210
 Alpha  occ. eigenvalues --   -1.03144  -0.98531  -0.90946  -0.87732  -0.86273
 Alpha  occ. eigenvalues --   -0.85804  -0.78956  -0.75702  -0.74748  -0.72943
 Alpha  occ. eigenvalues --   -0.70955  -0.69684  -0.65564  -0.64016  -0.62664
 Alpha  occ. eigenvalues --   -0.58957  -0.58306  -0.57656  -0.57451  -0.57059
 Alpha  occ. eigenvalues --   -0.55367  -0.55220  -0.54637  -0.52457  -0.51158
 Alpha  occ. eigenvalues --   -0.49795  -0.48573  -0.48502  -0.48045  -0.47735
 Alpha  occ. eigenvalues --   -0.46129  -0.45616  -0.44556  -0.44089  -0.43950
 Alpha  occ. eigenvalues --   -0.42646  -0.42016  -0.40283  -0.39440  -0.38333
 Alpha  occ. eigenvalues --   -0.37576  -0.33153  -0.32132  -0.31497  -0.30728
 Alpha virt. eigenvalues --    0.00180   0.01633   0.06089   0.07312   0.07790
 Alpha virt. eigenvalues --    0.08826   0.09250   0.10980   0.11375   0.11898
 Alpha virt. eigenvalues --    0.12547   0.12609   0.13174   0.13719   0.13944

 Mulliken charges:
               1
     1  C   -0.431862
     2  C   -0.341328
     3  C   -0.036575
     4  C   -0.141597
     5  C   -0.092599
     6  O   -0.534264
     7  N   -0.487205
     8  C   -0.229012
     9  C   -0.112375
    10  C   -0.250877
    11  C    0.289411
    12  C   -0.074248
    13  C    0.305855
    14  C   -0.250300
    15  H    0.173435
    16  H    0.174657
    17  H    0.173276
    18  F   -0.219973
    19  F   -0.211352
    20  H    0.154585
    21  H    0.146703
    22  H    0.136746
    23  H    0.156390
    24  H    0.173164
    25  H    0.140810
    26  H    0.133685
    27  H    0.131948
    28  H    0.361984
    29  H    0.174582
    30  H    0.178620
    31  H    0.175436
    32  C   -0.465002
    33  H    0.148538
    34  H    0.159279
    35  H    0.154569
    36  H    0.234899
 Sum of Mulliken charges =   0.00000

 Dipole moment (field-independent basis, Debye):
    X=             -1.1337    Y=              3.0567    Z=             -2.1074  Tot=              3.8820
 Quadrupole moment (field-independent basis, Debye-Ang):
   XX=            -81.9750   YY=           -108.2898   ZZ=           -107.7286
   XY=              2.7105   XZ=             -7.2424   YZ=              6.2095

 Normal termination of Gaussian 09 at Wed Jun 26 12:21:42 2019.
