 Gaussian 09, Revision D.01,
 Gaussian 09:  ES64L-G09RevD.01 24-Apr-2013

 --------------------------------------------------------
 # m062x/def2tzvp int=ultrafine scrf=(solvent=chloroform)
 --------------------------------------------------------

 ------------
 AT3_2ginp005
 ------------
 Symbolic Z-matrix:
 Charge =  0 Multiplicity = 1

                         Standard orientation:
 ---------------------------------------------------------------------
 Center     Atomic      Atomic             Coordinates (Angstroms)
 Number     Number       Type             X           Y           Z
 ---------------------------------------------------------------------
      1          6           0        1.633559    3.116731   -0.454897
      2          6           0        2.504403    1.995063    0.123459
      3          6           0        2.159514    0.569663   -0.352186
      4          6           0        3.220745   -0.473063    0.097718
      5          6           0        2.914887   -1.861938   -0.496100
      6          8           0        1.791298   -2.493217    0.099668
      7          7           0        0.792790    0.126847    0.044780
      8          6           0       -0.256600    0.339133   -0.973517
      9          6           0       -4.165846   -0.471080    0.712784
     10          6           0       -3.382178   -1.527761    0.245642
     11          6           0       -2.134815   -1.236748   -0.291386
     12          6           0       -1.622478    0.058435   -0.398298
     13          6           0       -2.447226    1.071646    0.094198
     14          6           0       -3.704010    0.843735    0.641249
     15          1           0       -5.143537   -0.674297    1.136825
     16          1           0       -3.718614   -2.556886    0.292277
     17          1           0       -4.292957    1.680134    0.999075
     18          9           0       -1.370040   -2.254946   -0.745426
     19          9           0       -1.993954    2.348363    0.030251
     20          1           0        1.989643    4.092829   -0.109881
     21          1           0        1.663335    3.122570   -1.550390
     22          1           0        0.587599    3.026151   -0.147066
     23          1           0        3.554803    2.189221   -0.129175
     24          1           0        2.447786    2.029294    1.219182
     25          1           0        4.174850   -0.148839   -0.343416
     26          1           0        3.776182   -2.522908   -0.337047
     27          1           0        2.785471   -1.764145   -1.589145
     28          1           0        1.123582   -1.777867    0.166031
     29          1           0       -0.251841    1.352832   -1.389763
     30          1           0       -0.065518   -0.354431   -1.798001
     31          1           0        2.173259    0.568871   -1.451115
     32          6           0        3.400199   -0.563620    1.620929
     33          1           0        2.468242   -0.860599    2.109757
     34          1           0        4.151707   -1.320870    1.868213
     35          1           0        3.732465    0.383702    2.054170
     36          1           0        0.518658    0.591109    0.907677
 ---------------------------------------------------------------------

 SCF Done:  E(RM062X) =  -836.460978034     A.U. after   12 cycles

 The electronic state is 1-A.
 Alpha  occ. eigenvalues --  -25.27123 -25.26810 -19.59958 -14.75032 -10.64586
 Alpha  occ. eigenvalues --  -10.64470 -10.58199 -10.57237 -10.57179 -10.57039
 Alpha  occ. eigenvalues --  -10.56770 -10.55932 -10.55866 -10.53749 -10.53561
 Alpha  occ. eigenvalues --  -10.52635 -10.51968  -1.38340  -1.38127  -1.12231
 Alpha  occ. eigenvalues --   -1.02717  -0.98454  -0.90715  -0.87350  -0.86245
 Alpha  occ. eigenvalues --   -0.85480  -0.78942  -0.76438  -0.74647  -0.72926
 Alpha  occ. eigenvalues --   -0.70708  -0.68576  -0.65540  -0.64127  -0.62709
 Alpha  occ. eigenvalues --   -0.58795  -0.58115  -0.57548  -0.57409  -0.56471
 Alpha  occ. eigenvalues --   -0.55578  -0.54652  -0.53627  -0.52872  -0.51973
 Alpha  occ. eigenvalues --   -0.49507  -0.49342  -0.48251  -0.47752  -0.46711
 Alpha  occ. eigenvalues --   -0.46470  -0.44786  -0.44122  -0.43863  -0.43220
 Alpha  occ. eigenvalues --   -0.42803  -0.42026  -0.40902  -0.39121  -0.38085
 Alpha  occ. eigenvalues --   -0.37681  -0.33172  -0.32146  -0.31475  -0.30017
 Alpha virt. eigenvalues --    0.00087   0.01658   0.05822   0.07353   0.07772
 Alpha virt. eigenvalues --    0.08785   0.09127   0.10648   0.11704   0.11752
 Alpha virt. eigenvalues --    0.12263   0.12582   0.13078   0.13775   0.14840

 Mulliken charges:
               1
     1  C   -0.466117
     2  C   -0.297240
     3  C   -0.096726
     4  C   -0.094586
     5  C   -0.087240
     6  O   -0.525986
     7  N   -0.481712
     8  C   -0.303593
     9  C   -0.111113
    10  C   -0.247510
    11  C    0.290395
    12  C   -0.068820
    13  C    0.303224
    14  C   -0.247642
    15  H    0.173195
    16  H    0.174154
    17  H    0.174281
    18  F   -0.206373
    19  F   -0.213674
    20  H    0.156861
    21  H    0.156046
    22  H    0.149360
    23  H    0.150868
    24  H    0.158631
    25  H    0.147188
    26  H    0.137697
    27  H    0.120296
    28  H    0.354487
    29  H    0.191782
    30  H    0.194987
    31  H    0.186466
    32  C   -0.480421
    33  H    0.153230
    34  H    0.151500
    35  H    0.152608
    36  H    0.251497
 Sum of Mulliken charges =   0.00000

 Dipole moment (field-independent basis, Debye):
    X=             -1.5356    Y=              3.6434    Z=              0.0360  Tot=              3.9539
 Quadrupole moment (field-independent basis, Debye-Ang):
   XX=            -84.6882   YY=           -114.5459   ZZ=           -101.7767
   XY=              8.7454   XZ=             -6.5039   YZ=              0.8261

 Normal termination of Gaussian 09 at Wed Jun 26 12:23:16 2019.
