 Gaussian 09, Revision D.01,
 Gaussian 09:  ES64L-G09RevD.01 24-Apr-2013

 --------------------------------------------------------
 # m062x/def2tzvp int=ultrafine scrf=(solvent=chloroform)
 --------------------------------------------------------

 ------------
 AT3_1ginp018
 ------------
 Symbolic Z-matrix:
 Charge =  0 Multiplicity = 1

                         Standard orientation:
 ---------------------------------------------------------------------
 Center     Atomic      Atomic             Coordinates (Angstroms)
 Number     Number       Type             X           Y           Z
 ---------------------------------------------------------------------
      1          6           0       -2.132721    2.800805    0.487157
      2          6           0       -2.427006    1.858701   -0.686926
      3          6           0       -2.072973    0.369951   -0.440405
      4          6           0       -3.091828   -0.335965    0.503609
      5          6           0       -2.476722   -1.547745    1.234034
      6          8           0       -1.800803   -2.441258    0.359491
      7          7           0       -0.686663    0.141555    0.018799
      8          6           0        0.353521    0.568781   -0.928662
      9          6           0        4.254096   -0.597707    0.559036
     10          6           0        3.394665   -1.563845    0.031160
     11          6           0        2.155042   -1.154428   -0.440612
     12          6           0        1.719344    0.172834   -0.424027
     13          6           0        2.616233    1.091005    0.123928
     14          6           0        3.871277    0.742629    0.610524
     15          1           0        5.228247   -0.893070    0.934267
     16          1           0        3.668274   -2.611358   -0.017788
     17          1           0        4.519048    1.509639    1.018776
     18          9           0        1.317152   -2.085382   -0.956094
     19          9           0        2.240347    2.391428    0.182921
     20          1           0       -1.061597    2.848296    0.712761
     21          1           0       -2.457299    3.818882    0.251309
     22          1           0       -2.652670    2.495823    1.401555
     23          1           0       -3.489806    1.922190   -0.948376
     24          1           0       -1.884891    2.213896   -1.571643
     25          1           0       -3.403390    0.372866    1.284150
     26          1           0       -3.276842   -2.118777    1.719373
     27          1           0       -1.802861   -1.200905    2.031493
     28          1           0       -1.032251   -1.918594    0.061625
     29          1           0        0.158328    0.059380   -1.878654
     30          1           0        0.350556    1.647098   -1.131907
     31          1           0       -2.135181   -0.143549   -1.409338
     32          6           0       -4.336734   -0.766201   -0.287745
     33          1           0       -4.080440   -1.589971   -0.962298
     34          1           0       -5.126479   -1.114809    0.386052
     35          1           0       -4.750685    0.049658   -0.888808
     36          1           0       -0.531653    0.605178    0.912070
 ---------------------------------------------------------------------

 SCF Done:  E(RM062X) =  -836.460530945     A.U. after   12 cycles

 The electronic state is 1-A.
 Alpha  occ. eigenvalues --  -25.26970 -25.26888 -19.60723 -14.74668 -10.64468
 Alpha  occ. eigenvalues --  -10.64380 -10.58059 -10.57178 -10.57118 -10.56957
 Alpha  occ. eigenvalues --  -10.56685 -10.55859 -10.55818 -10.53794 -10.53380
 Alpha  occ. eigenvalues --  -10.52707 -10.52096  -1.38245  -1.38106  -1.12831
 Alpha  occ. eigenvalues --   -1.02780  -0.98385  -0.90611  -0.87379  -0.86174
 Alpha  occ. eigenvalues --   -0.85328  -0.78903  -0.76164  -0.74862  -0.72853
 Alpha  occ. eigenvalues --   -0.70899  -0.68180  -0.65471  -0.64131  -0.62618
 Alpha  occ. eigenvalues --   -0.58709  -0.58063  -0.57592  -0.57354  -0.56722
 Alpha  occ. eigenvalues --   -0.55398  -0.54630  -0.54162  -0.53589  -0.51354
 Alpha  occ. eigenvalues --   -0.49636  -0.48799  -0.48583  -0.47862  -0.47244
 Alpha  occ. eigenvalues --   -0.45690  -0.44822  -0.44114  -0.43516  -0.43201
 Alpha  occ. eigenvalues --   -0.42896  -0.41582  -0.40858  -0.39984  -0.37689
 Alpha  occ. eigenvalues --   -0.37422  -0.33561  -0.31997  -0.31429  -0.30273
 Alpha virt. eigenvalues --    0.00207   0.01741   0.05469   0.07434   0.07944
 Alpha virt. eigenvalues --    0.08846   0.09361   0.10930   0.11619   0.11828
 Alpha virt. eigenvalues --    0.12221   0.12382   0.13668   0.14011   0.14284

 Mulliken charges:
               1
     1  C   -0.464583
     2  C   -0.279352
     3  C   -0.137537
     4  C   -0.074034
     5  C   -0.075440
     6  O   -0.520233
     7  N   -0.471340
     8  C   -0.268807
     9  C   -0.112291
    10  C   -0.246021
    11  C    0.286818
    12  C   -0.084663
    13  C    0.316862
    14  C   -0.249920
    15  H    0.173018
    16  H    0.174404
    17  H    0.172721
    18  F   -0.213550
    19  F   -0.215810
    20  H    0.147442
    21  H    0.155709
    22  H    0.147002
    23  H    0.149168
    24  H    0.164694
    25  H    0.130086
    26  H    0.136824
    27  H    0.134917
    28  H    0.341855
    29  H    0.189257
    30  H    0.175172
    31  H    0.186941
    32  C   -0.475528
    33  H    0.161211
    34  H    0.151397
    35  H    0.141450
    36  H    0.252160
 Sum of Mulliken charges =   0.00000

 Dipole moment (field-independent basis, Debye):
    X=              1.8130    Y=              3.1719    Z=              0.6399  Tot=              3.7091
 Quadrupole moment (field-independent basis, Debye-Ang):
   XX=            -87.5487   YY=           -113.7070   ZZ=           -101.0804
   XY=            -10.3130   XZ=              2.4431   YZ=             -0.7707

 Normal termination of Gaussian 09 at Wed Jun 26 12:22:03 2019.
