 Gaussian 09, Revision D.01,
 Gaussian 09:  ES64L-G09RevD.01 24-Apr-2013

 --------------------------------------------------------
 # m062x/def2tzvp int=ultrafine scrf=(solvent=chloroform)
 --------------------------------------------------------

 ------------
 AT3_1ginp010
 ------------
 Symbolic Z-matrix:
 Charge =  0 Multiplicity = 1

                         Standard orientation:
 ---------------------------------------------------------------------
 Center     Atomic      Atomic             Coordinates (Angstroms)
 Number     Number       Type             X           Y           Z
 ---------------------------------------------------------------------
      1          6           0        1.168763    2.467278    1.819922
      2          6           0        2.132373    1.644519    0.953943
      3          6           0        1.438244    0.572671    0.094463
      4          6           0        2.405595   -0.512397   -0.447568
      5          6           0        2.789736   -1.538947    0.629430
      6          8           0        1.669599   -2.168978    1.248601
      7          7           0        0.745265    1.232431   -1.031328
      8          6           0       -0.331361    0.464984   -1.669775
      9          6           0       -3.543473   -0.826743    0.969536
     10          6           0       -2.596740   -1.755968    0.537525
     11          6           0       -1.584116   -1.317878   -0.306438
     12          6           0       -1.453787   -0.004310   -0.754891
     13          6           0       -2.424978    0.878640   -0.276994
     14          6           0       -3.464662    0.507583    0.564403
     15          1           0       -4.345015   -1.142464    1.628798
     16          1           0       -2.631705   -2.795404    0.842386
     17          1           0       -4.185120    1.249638    0.888501
     18          9           0       -0.658206   -2.230951   -0.723351
     19          9           0       -2.332061    2.175015   -0.665744
     20          1           0        0.618949    1.823578    2.514984
     21          1           0        1.713681    3.210016    2.411174
     22          1           0        0.429078    3.012891    1.223069
     23          1           0        2.705527    2.312142    0.299306
     24          1           0        2.858747    1.155203    1.612404
     25          1           0        1.849328   -1.077375   -1.209028
     26          1           0        3.349362   -1.061624    1.442399
     27          1           0        3.459945   -2.288808    0.179262
     28          1           0        1.077981   -2.473652    0.545487
     29          1           0       -0.761142    1.100584   -2.449372
     30          1           0        0.092838   -0.406550   -2.172012
     31          1           0        0.721781    0.050396    0.748433
     32          6           0        3.652427    0.059648   -1.134469
     33          1           0        4.329972    0.537714   -0.418768
     34          1           0        4.215263   -0.729484   -1.644227
     35          1           0        3.362569    0.806848   -1.877767
     36          1           0        0.348579    2.110108   -0.707209
 ---------------------------------------------------------------------

 SCF Done:  E(RM062X) =  -836.460353588     A.U. after   12 cycles

 The electronic state is 1-A.
 Alpha  occ. eigenvalues --  -25.27568 -25.27018 -19.62234 -14.73772 -10.64541
 Alpha  occ. eigenvalues --  -10.64394 -10.57839 -10.57648 -10.56942 -10.56727
 Alpha  occ. eigenvalues --  -10.56122 -10.55991 -10.55955 -10.53748 -10.53123
 Alpha  occ. eigenvalues --  -10.52460 -10.52114  -1.38509  -1.38215  -1.13963
 Alpha  occ. eigenvalues --   -1.02143  -0.98379  -0.90344  -0.87500  -0.86297
 Alpha  occ. eigenvalues --   -0.85492  -0.78587  -0.76280  -0.74663  -0.72960
 Alpha  occ. eigenvalues --   -0.70527  -0.69628  -0.65717  -0.63207  -0.62325
 Alpha  occ. eigenvalues --   -0.59475  -0.58182  -0.57871  -0.57449  -0.56565
 Alpha  occ. eigenvalues --   -0.55853  -0.54916  -0.54200  -0.53273  -0.50996
 Alpha  occ. eigenvalues --   -0.49970  -0.49085  -0.48225  -0.47695  -0.46889
 Alpha  occ. eigenvalues --   -0.45971  -0.45427  -0.44332  -0.43926  -0.43091
 Alpha  occ. eigenvalues --   -0.42974  -0.41799  -0.40361  -0.38705  -0.38265
 Alpha  occ. eigenvalues --   -0.36686  -0.34706  -0.32117  -0.31598  -0.29583
 Alpha virt. eigenvalues --    0.00212   0.01515   0.05992   0.07328   0.07724
 Alpha virt. eigenvalues --    0.08320   0.09095   0.10906   0.11526   0.11885
 Alpha virt. eigenvalues --    0.12552   0.12702   0.13079   0.13832   0.14390

 Mulliken charges:
               1
     1  C   -0.437816
     2  C   -0.346456
     3  C   -0.040076
     4  C   -0.211850
     5  C   -0.065011
     6  O   -0.497105
     7  N   -0.377190
     8  C   -0.335719
     9  C   -0.122059
    10  C   -0.223027
    11  C    0.254455
    12  C   -0.031553
    13  C    0.292609
    14  C   -0.243446
    15  H    0.173241
    16  H    0.175345
    17  H    0.173551
    18  F   -0.234778
    19  F   -0.217149
    20  H    0.150475
    21  H    0.153407
    22  H    0.135274
    23  H    0.167829
    24  H    0.146503
    25  H    0.153987
    26  H    0.135581
    27  H    0.135353
    28  H    0.330495
    29  H    0.194605
    30  H    0.199284
    31  H    0.189698
    32  C   -0.476671
    33  H    0.158165
    34  H    0.155905
    35  H    0.161104
    36  H    0.223039
 Sum of Mulliken charges =   0.00000

 Dipole moment (field-independent basis, Debye):
    X=             -1.9341    Y=              0.0484    Z=              0.0098  Tot=              1.9347
 Quadrupole moment (field-independent basis, Debye-Ang):
   XX=            -92.4513   YY=           -104.4864   ZZ=           -105.6490
   XY=              3.9570   XZ=             -5.5889   YZ=              4.9713

 Normal termination of Gaussian 09 at Wed Jun 26 12:24:32 2019.
