 Gaussian 09, Revision D.01,
 Gaussian 09:  ES64L-G09RevD.01 24-Apr-2013

 --------------------------------------------------------
 # m062x/def2tzvp int=ultrafine scrf=(solvent=chloroform)
 --------------------------------------------------------

 ------------
 AT3_1ginp015
 ------------
 Symbolic Z-matrix:
 Charge =  0 Multiplicity = 1

                         Standard orientation:
 ---------------------------------------------------------------------
 Center     Atomic      Atomic             Coordinates (Angstroms)
 Number     Number       Type             X           Y           Z
 ---------------------------------------------------------------------
      1          6           0       -1.926743   -1.869548    2.435345
      2          6           0       -1.491145   -1.766554    0.970607
      3          6           0       -1.307425   -0.331254    0.437351
      4          6           0       -2.580480    0.553162    0.550792
      5          6           0       -3.734249    0.050451   -0.339022
      6          8           0       -3.459582    0.177389   -1.728353
      7          7           0       -0.833590   -0.417414   -0.974975
      8          6           0        0.259287    0.495120   -1.357448
      9          6           0        3.996561   -0.083566    0.788300
     10          6           0        3.556976   -1.047345   -0.122462
     11          6           0        2.357004   -0.824566   -0.782334
     12          6           0        1.560531    0.307698   -0.595345
     13          6           0        2.048707    1.229808    0.331280
     14          6           0        3.243048    1.066014    1.024933
     15          1           0        4.931360   -0.232059    1.318403
     16          1           0        4.122632   -1.949848   -0.322690
     17          1           0        3.561344    1.825921    1.729148
     18          9           0        1.912948   -1.756573   -1.664087
     19          9           0        1.317973    2.347327    0.567220
     20          1           0       -2.946007   -1.504400    2.591877
     21          1           0       -1.898795   -2.911576    2.768621
     22          1           0       -1.261207   -1.293866    3.088443
     23          1           0       -0.527820   -2.280717    0.854589
     24          1           0       -2.202710   -2.306769    0.332746
     25          1           0       -2.921368    0.470503    1.591147
     26          1           0       -4.634539    0.642229   -0.130004
     27          1           0       -3.978286   -0.993115   -0.078267
     28          1           0       -2.519804   -0.097076   -1.810851
     29          1           0        0.449768    0.339596   -2.423752
     30          1           0       -0.075384    1.524362   -1.236105
     31          1           0       -0.529313    0.140301    1.058443
     32          6           0       -2.299528    2.040010    0.279291
     33          1           0       -2.151007    2.220490   -0.788568
     34          1           0       -3.150990    2.652591    0.594972
     35          1           0       -1.412291    2.389188    0.817062
     36          1           0       -0.517344   -1.366333   -1.159491
 ---------------------------------------------------------------------

 SCF Done:  E(RM062X) =  -836.461701068     A.U. after   12 cycles

 The electronic state is 1-A.
 Alpha  occ. eigenvalues --  -25.27275 -25.27031 -19.60014 -14.75111 -10.64599
 Alpha  occ. eigenvalues --  -10.64581 -10.58170 -10.57187 -10.57134 -10.57105
 Alpha  occ. eigenvalues --  -10.56857 -10.56063 -10.56024 -10.53824 -10.53718
 Alpha  occ. eigenvalues --  -10.52759 -10.51927  -1.38451  -1.38257  -1.12244
 Alpha  occ. eigenvalues --   -1.02808  -0.98512  -0.90599  -0.87590  -0.86354
 Alpha  occ. eigenvalues --   -0.85625  -0.79291  -0.76011  -0.74422  -0.72984
 Alpha  occ. eigenvalues --   -0.70557  -0.69396  -0.65614  -0.64287  -0.62239
 Alpha  occ. eigenvalues --   -0.59128  -0.58257  -0.57682  -0.57577  -0.57334
 Alpha  occ. eigenvalues --   -0.55200  -0.54685  -0.53273  -0.52838  -0.51762
 Alpha  occ. eigenvalues --   -0.50521  -0.49694  -0.48203  -0.47701  -0.46712
 Alpha  occ. eigenvalues --   -0.45979  -0.45063  -0.44437  -0.43919  -0.43319
 Alpha  occ. eigenvalues --   -0.43012  -0.42355  -0.40853  -0.38407  -0.38085
 Alpha  occ. eigenvalues --   -0.37708  -0.33232  -0.32305  -0.31635  -0.30425
 Alpha virt. eigenvalues --    0.00020   0.01491   0.05770   0.07394   0.08257
 Alpha virt. eigenvalues --    0.08773   0.09064   0.10748   0.11093   0.11874
 Alpha virt. eigenvalues --    0.12000   0.12655   0.12902   0.14130   0.14209

 Mulliken charges:
               1
     1  C   -0.456547
     2  C   -0.305450
     3  C   -0.058024
     4  C   -0.142262
     5  C   -0.093021
     6  O   -0.533209
     7  N   -0.473534
     8  C   -0.315646
     9  C   -0.120214
    10  C   -0.244317
    11  C    0.293721
    12  C   -0.070178
    13  C    0.281680
    14  C   -0.228616
    15  H    0.173669
    16  H    0.174142
    17  H    0.174634
    18  F   -0.217994
    19  F   -0.213779
    20  H    0.150909
    21  H    0.154273
    22  H    0.150626
    23  H    0.151134
    24  H    0.172543
    25  H    0.159583
    26  H    0.136059
    27  H    0.128507
    28  H    0.360964
    29  H    0.193893
    30  H    0.206658
    31  H    0.175863
    32  C   -0.489390
    33  H    0.155428
    34  H    0.156929
    35  H    0.159561
    36  H    0.251406
 Sum of Mulliken charges =   0.00000

 Dipole moment (field-independent basis, Debye):
    X=              4.4955    Y=             -1.3723    Z=              3.3866  Tot=              5.7933
 Quadrupole moment (field-independent basis, Debye-Ang):
   XX=           -101.9883   YY=           -103.1570   ZZ=           -106.5198
   XY=              0.5803   XZ=             -6.8174   YZ=             -0.2019

 Normal termination of Gaussian 09 at Wed Jun 26 12:23:48 2019.
