 Gaussian 09, Revision D.01,
 Gaussian 09:  EM64L-G09RevD.01 24-Apr-2013

 ----------------------------------------------------------------------
 # mPW1PW91/6-311g(d) geom=checkpoint nmr=giao scrf=(solvent=chloroform
 )
 ----------------------------------------------------------------------

 ------------
 AT3_2ginp010
 ------------
 Structure from the checkpoint file:  "AT3_2ginp010.chk"
 Charge =  0 Multiplicity = 1

                         Standard orientation:
 ---------------------------------------------------------------------
 Center     Atomic      Atomic             Coordinates (Angstroms)
 Number     Number       Type             X           Y           Z
 ---------------------------------------------------------------------
      1          6           0       -1.155690    2.953686   -0.699867
      2          6           0       -0.779475    1.493698   -0.977463
      3          6           0       -1.390725    0.469178    0.001439
      4          6           0       -2.943496    0.506853    0.065232
      5          6           0       -3.474431   -0.472523    1.130926
      6          8           0       -3.336493   -1.836719    0.758423
      7          7           0       -0.925244   -0.919670   -0.276208
      8          6           0        0.230613   -1.403991    0.494774
      9          6           0        4.021350    0.632029   -0.118195
     10          6           0        3.542404   -0.255462   -1.084685
     11          6           0        2.326629   -0.883327   -0.852694
     12          6           0        1.552113   -0.682716    0.292167
     13          6           0        2.080588    0.217267    1.218596
     14          6           0        3.292020    0.877437    1.045620
     15          1           0        4.968892    1.136546   -0.274892
     16          1           0        4.089882   -0.462050   -1.996947
     17          1           0        3.642507    1.562729    1.808643
     18          9           0        1.844991   -1.741360   -1.786051
     19          9           0        1.367836    0.462426    2.345385
     20          1           0       -0.911453    3.236694    0.330483
     21          1           0       -0.606007    3.625909   -1.366226
     22          1           0       -2.222744    3.141057   -0.852435
     23          1           0       -1.068305    1.228826   -2.003221
     24          1           0        0.310082    1.394091   -0.936079
     25          1           0       -3.219903    1.511913    0.411914
     26          1           0       -4.543843   -0.287984    1.293777
     27          1           0       -2.965640   -0.267818    2.090176
     28          1           0       -2.445618   -1.870747    0.345902
     29          1           0       -0.030565   -1.366194    1.554409
     30          1           0        0.369325   -2.457403    0.233852
     31          1           0       -1.030976    0.715988    1.009505
     32          6           0       -3.621934    0.258915   -1.290359
     33          1           0       -3.366073   -0.728746   -1.683939
     34          1           0       -4.711068    0.292862   -1.181562
     35          1           0       -3.341332    1.009933   -2.034613
     36          1           0       -0.743758   -1.040024   -1.269637
 ---------------------------------------------------------------------

 SCF Done:  E(RmPW1PW91) =  -836.468762488     A.U. after   12 cycles

      1  C    Isotropic =   176.0256   Anisotropy =    20.4685

      2  C    Isotropic =   158.0810   Anisotropy =    30.0534

      3  C    Isotropic =   119.9642   Anisotropy =    26.9242

      4  C    Isotropic =   150.5968   Anisotropy =     5.4522

      5  C    Isotropic =   115.4837   Anisotropy =    39.4026

      6  O    Isotropic =   313.9805   Anisotropy =    85.2749

      7  N    Isotropic =   197.2965   Anisotropy =    20.7953

      8  C    Isotropic =   144.7930   Anisotropy =    53.0393

      9  C    Isotropic =    53.5391   Anisotropy =   189.2454

     10  C    Isotropic =    72.2303   Anisotropy =   147.2564

     11  C    Isotropic =    17.4509   Anisotropy =    97.2073

     12  C    Isotropic =    64.3694   Anisotropy =   142.6282

     13  C    Isotropic =    18.5739   Anisotropy =    99.0119

     14  C    Isotropic =    72.2570   Anisotropy =   147.3832

     15  H    Isotropic =    24.6159   Anisotropy =     3.0089

     16  H    Isotropic =    25.1518   Anisotropy =     4.7155

     17  H    Isotropic =    25.0881   Anisotropy =     4.8508

     18  F    Isotropic =   296.0216   Anisotropy =   128.9399

     19  F    Isotropic =   296.5933   Anisotropy =   119.4837

     20  H    Isotropic =    31.6509   Anisotropy =     8.1064

     21  H    Isotropic =    31.4493   Anisotropy =    10.9684

     22  H    Isotropic =    31.4010   Anisotropy =     8.3879

     23  H    Isotropic =    31.0386   Anisotropy =     4.0673

     24  H    Isotropic =    31.4840   Anisotropy =    12.3062

     25  H    Isotropic =    30.6610   Anisotropy =     6.4821

     26  H    Isotropic =    28.3228   Anisotropy =     8.0783

     27  H    Isotropic =    27.8868   Anisotropy =     5.8603

     28  H    Isotropic =    27.6095   Anisotropy =    24.5101

     29  H    Isotropic =    28.1747   Anisotropy =     5.8726

     30  H    Isotropic =    28.1592   Anisotropy =     7.7347

     31  H    Isotropic =    29.1794   Anisotropy =     4.6450

     32  C    Isotropic =   178.3671   Anisotropy =    16.7155

     33  H    Isotropic =    30.8857   Anisotropy =     6.0346

     34  H    Isotropic =    31.3693   Anisotropy =    11.6727

     35  H    Isotropic =    31.3271   Anisotropy =     7.5407

     36  H    Isotropic =    31.2999   Anisotropy =     9.0071

 The electronic state is 1-A.
 Alpha  occ. eigenvalues --  -24.80296 -24.80178 -19.18042 -14.39657 -10.34054
 Alpha  occ. eigenvalues --  -10.34018 -10.27815 -10.26780 -10.26704 -10.26450
 Alpha  occ. eigenvalues --  -10.26326 -10.25649 -10.25630 -10.23445 -10.23076
 Alpha  occ. eigenvalues --  -10.22180 -10.21540  -1.27165  -1.27046  -1.02722
 Alpha  occ. eigenvalues --   -0.94740  -0.90897  -0.83215  -0.80429  -0.79066
 Alpha  occ. eigenvalues --   -0.78018  -0.72243  -0.69545  -0.67660  -0.66106
 Alpha  occ. eigenvalues --   -0.64064  -0.62904  -0.58949  -0.57852  -0.55317
 Alpha  occ. eigenvalues --   -0.52785  -0.51766  -0.51492  -0.50906  -0.49484
 Alpha  occ. eigenvalues --   -0.49184  -0.48397  -0.47520  -0.46814  -0.46237
 Alpha  occ. eigenvalues --   -0.44470  -0.43331  -0.42636  -0.41952  -0.41038
 Alpha  occ. eigenvalues --   -0.40804  -0.39894  -0.39214  -0.38374  -0.38003
 Alpha  occ. eigenvalues --   -0.37895  -0.37146  -0.36503  -0.33968  -0.33111
 Alpha  occ. eigenvalues --   -0.32817  -0.28100  -0.27301  -0.26634  -0.24882
 Alpha virt. eigenvalues --   -0.02672  -0.01229   0.05011   0.05463   0.06548
 Alpha virt. eigenvalues --    0.07339   0.07549   0.10070   0.10137   0.10786
 Alpha virt. eigenvalues --    0.11231   0.11400   0.12232   0.12952   0.13149

 Mulliken charges:
               1
     1  C   -0.672051
     2  C   -0.460027
     3  C   -0.105337
     4  C   -0.321861
     5  C   -0.182304
     6  O   -0.610891
     7  N   -0.610067
     8  C   -0.387840
     9  C   -0.205271
    10  C   -0.267649
    11  C    0.332162
    12  C   -0.154632
    13  C    0.324832
    14  C   -0.265682
    15  H    0.236407
    16  H    0.239393
    17  H    0.239503
    18  F   -0.248964
    19  F   -0.249147
    20  H    0.226681
    21  H    0.230113
    22  H    0.232376
    23  H    0.224191
    24  H    0.249993
    25  H    0.232902
    26  H    0.214631
    27  H    0.194519
    28  H    0.413890
    29  H    0.268457
    30  H    0.261716
    31  H    0.242631
    32  C   -0.655212
    33  H    0.225243
    34  H    0.228941
    35  H    0.230302
    36  H    0.348051
 Sum of Mulliken charges =   0.00000

 Dipole moment (field-independent basis, Debye):
    X=              4.5979    Y=              3.3072    Z=             -1.3891  Tot=              5.8316
 Quadrupole moment (field-independent basis, Debye-Ang):
   XX=           -101.4566   YY=           -106.5454   ZZ=           -102.8271
   XY=             -6.7758   XZ=              1.3289   YZ=              2.2301

 Normal termination of Gaussian 09 at Wed Mar  6 12:37:58 2019.
