 Gaussian 09, Revision D.01,
 Gaussian 09:  EM64L-G09RevD.01 24-Apr-2013

 ----------------------------------------------------------------------
 # mPW1PW91/6-311g(d) geom=checkpoint nmr=giao scrf=(solvent=chloroform
 )
 ----------------------------------------------------------------------

 ------------
 AT3_1ginp005
 ------------
 Structure from the checkpoint file:  "AT3_1ginp005.chk"
 Charge =  0 Multiplicity = 1

                         Standard orientation:
 ---------------------------------------------------------------------
 Center     Atomic      Atomic             Coordinates (Angstroms)
 Number     Number       Type             X           Y           Z
 ---------------------------------------------------------------------
      1          6           0       -4.254834    1.941452   -0.062588
      2          6           0       -2.800614    1.692713    0.349652
      3          6           0       -2.092312    0.543416   -0.394350
      4          6           0       -2.787586   -0.838240   -0.242690
      5          6           0       -2.750469   -1.362997    1.206381
      6          8           0       -1.441811   -1.708029    1.639867
      7          7           0       -0.675831    0.475048    0.075025
      8          6           0        0.322484    0.396613   -1.009312
      9          6           0        4.307872   -0.102001    0.617209
     10          6           0        3.761801    1.177861    0.505556
     11          6           0        2.482706    1.301827   -0.020873
     12          6           0        1.713823    0.220499   -0.453562
     13          6           0        2.307765   -1.034589   -0.307304
     14          6           0        3.583291   -1.223415    0.210426
     15          1           0        5.304913   -0.226556    1.026290
     16          1           0        4.302592    2.063348    0.818561
     17          1           0        3.985740   -2.226475    0.290200
     18          9           0        1.936005    2.538723   -0.121647
     19          9           0        1.603614   -2.120430   -0.703542
     20          1           0       -4.914577    1.119420    0.229882
     21          1           0       -4.635526    2.850450    0.413262
     22          1           0       -4.343361    2.072228   -1.147008
     23          1           0       -2.221050    2.606375    0.161578
     24          1           0       -2.747725    1.516311    1.431626
     25          1           0       -3.844395   -0.688989   -0.500678
     26          1           0       -3.366328   -2.268874    1.274814
     27          1           0       -3.209156   -0.622356    1.883318
     28          1           0       -0.873115   -0.996709    1.271186
     29          1           0        0.082899   -0.462094   -1.635998
     30          1           0        0.296380    1.289196   -1.651879
     31          1           0       -2.104689    0.801646   -1.466327
     32          6           0       -2.223235   -1.890784   -1.210183
     33          1           0       -1.200827   -2.168730   -0.942558
     34          1           0       -2.827764   -2.803597   -1.174267
     35          1           0       -2.228653   -1.528069   -2.244068
     36          1           0       -0.470770    1.313596    0.614494
 ---------------------------------------------------------------------

 SCF Done:  E(RmPW1PW91) =  -836.467114045     A.U. after   12 cycles

      1  C    Isotropic =   175.4198   Anisotropy =    20.8436

      2  C    Isotropic =   158.0960   Anisotropy =    31.9137

      3  C    Isotropic =   119.9640   Anisotropy =    28.6167

      4  C    Isotropic =   150.9716   Anisotropy =     6.7382

      5  C    Isotropic =   123.0634   Anisotropy =    58.9420

      6  O    Isotropic =   312.8854   Anisotropy =    96.3527

      7  N    Isotropic =   193.9469   Anisotropy =    72.0638

      8  C    Isotropic =   144.0762   Anisotropy =    53.4010

      9  C    Isotropic =    53.4416   Anisotropy =   189.1903

     10  C    Isotropic =    72.6871   Anisotropy =   146.1940

     11  C    Isotropic =    17.9781   Anisotropy =    96.4160

     12  C    Isotropic =    67.0235   Anisotropy =   137.1053

     13  C    Isotropic =    18.5752   Anisotropy =    97.7187

     14  C    Isotropic =    71.8929   Anisotropy =   147.5061

     15  H    Isotropic =    24.6312   Anisotropy =     3.1155

     16  H    Isotropic =    25.1715   Anisotropy =     4.9030

     17  H    Isotropic =    25.1032   Anisotropy =     5.2649

     18  F    Isotropic =   300.1072   Anisotropy =   117.9851

     19  F    Isotropic =   296.1356   Anisotropy =   120.8215

     20  H    Isotropic =    31.2331   Anisotropy =     7.7583

     21  H    Isotropic =    31.0224   Anisotropy =    11.4420

     22  H    Isotropic =    31.3560   Anisotropy =     8.9495

     23  H    Isotropic =    30.5160   Anisotropy =     7.1241

     24  H    Isotropic =    30.3099   Anisotropy =     4.6036

     25  H    Isotropic =    30.6062   Anisotropy =     7.6436

     26  H    Isotropic =    28.6324   Anisotropy =     8.8270

     27  H    Isotropic =    27.9513   Anisotropy =     5.8096

     28  H    Isotropic =    27.9314   Anisotropy =    24.7446

     29  H    Isotropic =    28.3033   Anisotropy =     3.8817

     30  H    Isotropic =    28.2599   Anisotropy =     6.3165

     31  H    Isotropic =    29.3540   Anisotropy =     2.8633

     32  C    Isotropic =   169.5499   Anisotropy =    25.3017

     33  H    Isotropic =    29.8336   Anisotropy =     6.5044

     34  H    Isotropic =    30.9111   Anisotropy =    11.2416

     35  H    Isotropic =    31.1624   Anisotropy =     7.5969

     36  H    Isotropic =    31.5072   Anisotropy =     9.0825

 The electronic state is 1-A.
 Alpha  occ. eigenvalues --  -24.80231 -24.80013 -19.17919 -14.39667 -10.33965
 Alpha  occ. eigenvalues --  -10.33937 -10.27592 -10.26948 -10.26760 -10.26316
 Alpha  occ. eigenvalues --  -10.26297 -10.25508 -10.25439 -10.23615 -10.23483
 Alpha  occ. eigenvalues --  -10.22394 -10.21469  -1.27111  -1.26907  -1.02570
 Alpha  occ. eigenvalues --   -0.94892  -0.90836  -0.83378  -0.80290  -0.78945
 Alpha  occ. eigenvalues --   -0.78424  -0.72282  -0.69018  -0.67518  -0.66027
 Alpha  occ. eigenvalues --   -0.64118  -0.62959  -0.58912  -0.57671  -0.55823
 Alpha  occ. eigenvalues --   -0.52281  -0.51843  -0.51619  -0.50815  -0.49190
 Alpha  occ. eigenvalues --   -0.49037  -0.47994  -0.47203  -0.46736  -0.46237
 Alpha  occ. eigenvalues --   -0.44869  -0.44102  -0.43006  -0.41863  -0.41330
 Alpha  occ. eigenvalues --   -0.40440  -0.39292  -0.38994  -0.38662  -0.38230
 Alpha  occ. eigenvalues --   -0.37914  -0.37273  -0.36193  -0.33695  -0.33297
 Alpha  occ. eigenvalues --   -0.32634  -0.27858  -0.27129  -0.26523  -0.25362
 Alpha virt. eigenvalues --   -0.02501  -0.01031   0.04837   0.05654   0.07024
 Alpha virt. eigenvalues --    0.07247   0.07919   0.10044   0.10277   0.10506
 Alpha virt. eigenvalues --    0.11025   0.11684   0.12055   0.13132   0.13518

 Mulliken charges:
               1
     1  C   -0.669466
     2  C   -0.485433
     3  C   -0.080710
     4  C   -0.303663
     5  C   -0.191407
     6  O   -0.612057
     7  N   -0.618379
     8  C   -0.359455
     9  C   -0.208739
    10  C   -0.264828
    11  C    0.327668
    12  C   -0.147859
    13  C    0.323411
    14  C   -0.262498
    15  H    0.235889
    16  H    0.239225
    17  H    0.240580
    18  F   -0.251014
    19  F   -0.243244
    20  H    0.232912
    21  H    0.233060
    22  H    0.226842
    23  H    0.234209
    24  H    0.237343
    25  H    0.234278
    26  H    0.214300
    27  H    0.204202
    28  H    0.409722
    29  H    0.273937
    30  H    0.237622
    31  H    0.224335
    32  C   -0.671652
    33  H    0.236661
    34  H    0.228640
    35  H    0.222164
    36  H    0.353404
 Sum of Mulliken charges =   0.00000

 Dipole moment (field-independent basis, Debye):
    X=              1.1066    Y=              3.2318    Z=             -1.6486  Tot=              3.7930
 Quadrupole moment (field-independent basis, Debye-Ang):
   XX=            -82.0695   YY=           -106.9499   ZZ=           -106.5110
   XY=             -4.6929   XZ=              6.7258   YZ=              5.1138

 Normal termination of Gaussian 09 at Wed Mar  6 11:33:12 2019.
