 Gaussian 09, Revision D.01,
 Gaussian 09:  EM64L-G09RevD.01 24-Apr-2013

 ----------------------------------------------------------------------
 # mPW1PW91/6-311g(d) geom=checkpoint nmr=giao scrf=(solvent=chloroform
 )
 ----------------------------------------------------------------------

 ------------
 AT3_1ginp001
 ------------
 Structure from the checkpoint file:  "AT3_1ginp001.chk"
 Charge =  0 Multiplicity = 1

                         Standard orientation:
 ---------------------------------------------------------------------
 Center     Atomic      Atomic             Coordinates (Angstroms)
 Number     Number       Type             X           Y           Z
 ---------------------------------------------------------------------
      1          6           0        2.388743    2.602337   -0.036321
      2          6           0        2.457719    1.515366    1.043350
      3          6           0        2.069699    0.091307    0.577101
      4          6           0        3.020255   -0.526975   -0.484182
      5          6           0        2.665898   -2.003879   -0.763278
      6          8           0        1.408831   -2.193270   -1.388075
      7          7           0        0.674775   -0.006396    0.075506
      8          6           0       -0.374714    0.245616    1.078191
      9          6           0       -4.296758   -0.039746   -0.746128
     10          6           0       -3.845512   -1.074727    0.073177
     11          6           0       -2.584190   -0.965349    0.647962
     12          6           0       -1.745229    0.133491    0.455535
     13          6           0       -2.250364    1.133758   -0.377211
     14          6           0       -3.498228    1.081411   -0.981776
     15          1           0       -5.276693   -0.107247   -1.206623
     16          1           0       -4.446888   -1.954950    0.268360
     17          1           0       -3.823525    1.896885   -1.617070
     18          9           0       -2.148860   -1.969050    1.442733
     19          9           0       -1.457904    2.213246   -0.606671
     20          1           0        1.373633    2.718903   -0.431767
     21          1           0        2.683645    3.571250    0.378217
     22          1           0        3.054258    2.389434   -0.879524
     23          1           0        3.465464    1.481393    1.470208
     24          1           0        1.803152    1.798900    1.876054
     25          1           0        2.885446    0.015911   -1.431089
     26          1           0        2.732967   -2.563799    0.188603
     27          1           0        3.424618   -2.429786   -1.431480
     28          1           0        0.809016   -1.592161   -0.892455
     29          1           0       -0.274628   -0.501866    1.868591
     30          1           0       -0.285401    1.235121    1.548080
     31          1           0        2.114722   -0.561248    1.461897
     32          6           0        4.497363   -0.429422   -0.072522
     33          1           0        5.130641   -0.945470   -0.801381
     34          1           0        4.844140    0.605165   -0.014118
     35          1           0        4.670445   -0.895739    0.904924
     36          1           0        0.553708    0.653337   -0.691317
 ---------------------------------------------------------------------

 SCF Done:  E(RmPW1PW91) =  -836.469258947     A.U. after   12 cycles

      1  C    Isotropic =   182.2595   Anisotropy =    11.6309

      2  C    Isotropic =   166.6015   Anisotropy =    22.3748

      3  C    Isotropic =   119.6076   Anisotropy =    32.2799

      4  C    Isotropic =   148.1852   Anisotropy =    14.4268

      5  C    Isotropic =   113.8044   Anisotropy =    54.9268

      6  O    Isotropic =   289.2747   Anisotropy =    77.9102

      7  N    Isotropic =   203.8878   Anisotropy =    43.3777

      8  C    Isotropic =   148.1265   Anisotropy =    47.9903

      9  C    Isotropic =    53.4472   Anisotropy =   189.0998

     10  C    Isotropic =    71.7895   Anisotropy =   147.5467

     11  C    Isotropic =    19.1257   Anisotropy =    98.3549

     12  C    Isotropic =    66.8065   Anisotropy =   137.0682

     13  C    Isotropic =    17.9413   Anisotropy =    94.7621

     14  C    Isotropic =    72.5891   Anisotropy =   146.3966

     15  H    Isotropic =    24.6163   Anisotropy =     3.1332

     16  H    Isotropic =    25.1013   Anisotropy =     4.8434

     17  H    Isotropic =    25.1201   Anisotropy =     5.2469

     18  F    Isotropic =   295.2517   Anisotropy =   120.5454

     19  F    Isotropic =   300.8278   Anisotropy =   115.9498

     20  H    Isotropic =    31.0518   Anisotropy =     8.5978

     21  H    Isotropic =    31.1832   Anisotropy =    11.5505

     22  H    Isotropic =    31.3226   Anisotropy =     8.0595

     23  H    Isotropic =    30.6061   Anisotropy =     7.6547

     24  H    Isotropic =    30.0057   Anisotropy =     6.6238

     25  H    Isotropic =    30.4071   Anisotropy =     3.3668

     26  H    Isotropic =    28.3496   Anisotropy =     5.0401

     27  H    Isotropic =    28.5495   Anisotropy =     6.6574

     28  H    Isotropic =    27.5794   Anisotropy =    25.8322

     29  H    Isotropic =    28.6052   Anisotropy =     8.3133

     30  H    Isotropic =    28.1348   Anisotropy =     4.7459

     31  H    Isotropic =    29.2971   Anisotropy =     3.1099

     32  C    Isotropic =   172.6634   Anisotropy =    26.5531

     33  H    Isotropic =    31.4673   Anisotropy =    10.7986

     34  H    Isotropic =    31.0713   Anisotropy =     7.9431

     35  H    Isotropic =    31.6777   Anisotropy =     8.8628

     36  H    Isotropic =    31.0285   Anisotropy =     7.9610

 The electronic state is 1-A.
 Alpha  occ. eigenvalues --  -24.80460 -24.80010 -19.17834 -14.39762 -10.34038
 Alpha  occ. eigenvalues --  -10.34029 -10.27740 -10.26990 -10.26924 -10.26383
 Alpha  occ. eigenvalues --  -10.26358 -10.25585 -10.25505 -10.23826 -10.23089
 Alpha  occ. eigenvalues --  -10.22244 -10.22240  -1.27229  -1.26998  -1.02646
 Alpha  occ. eigenvalues --   -0.95089  -0.90923  -0.83542  -0.80489  -0.79024
 Alpha  occ. eigenvalues --   -0.78187  -0.72430  -0.68709  -0.68248  -0.66116
 Alpha  occ. eigenvalues --   -0.64716  -0.62215  -0.59052  -0.58150  -0.55664
 Alpha  occ. eigenvalues --   -0.52523  -0.52229  -0.51742  -0.50876  -0.49642
 Alpha  occ. eigenvalues --   -0.49222  -0.48836  -0.46849  -0.46635  -0.45190
 Alpha  occ. eigenvalues --   -0.44770  -0.43651  -0.42772  -0.41917  -0.41747
 Alpha  occ. eigenvalues --   -0.41551  -0.39923  -0.39452  -0.38647  -0.38202
 Alpha  occ. eigenvalues --   -0.37055  -0.36751  -0.35988  -0.35182  -0.33464
 Alpha  occ. eigenvalues --   -0.32868  -0.27905  -0.27206  -0.26564  -0.25157
 Alpha virt. eigenvalues --   -0.02507  -0.01115   0.04590   0.05747   0.06431
 Alpha virt. eigenvalues --    0.07128   0.08363   0.09748   0.10365   0.10803
 Alpha virt. eigenvalues --    0.11334   0.11585   0.12464   0.12905   0.13210

 Mulliken charges:
               1
     1  C   -0.678796
     2  C   -0.468548
     3  C   -0.089578
     4  C   -0.315449
     5  C   -0.161728
     6  O   -0.614956
     7  N   -0.621750
     8  C   -0.335993
     9  C   -0.208245
    10  C   -0.267699
    11  C    0.315766
    12  C   -0.151903
    13  C    0.333478
    14  C   -0.260672
    15  H    0.236331
    16  H    0.240091
    17  H    0.240291
    18  F   -0.245094
    19  F   -0.249689
    20  H    0.223440
    21  H    0.234022
    22  H    0.232729
    23  H    0.241291
    24  H    0.233097
    25  H    0.222129
    26  H    0.186026
    27  H    0.211128
    28  H    0.408289
    29  H    0.256812
    30  H    0.244044
    31  H    0.238095
    32  C   -0.676376
    33  H    0.233222
    34  H    0.241035
    35  H    0.226443
    36  H    0.348718
 Sum of Mulliken charges =   0.00000

 Dipole moment (field-independent basis, Debye):
    X=             -1.2096    Y=              3.2380    Z=              1.6317  Tot=              3.8223
 Quadrupole moment (field-independent basis, Debye-Ang):
   XX=            -82.4299   YY=           -110.7442   ZZ=           -104.5040
   XY=              3.4527   XZ=              7.5827   YZ=             -5.2590

 Normal termination of Gaussian 09 at Wed Mar  6 11:57:41 2019.
