 Gaussian 09, Revision D.01,
 Gaussian 09:  EM64L-G09RevD.01 24-Apr-2013

 ----------------------------------------------------------------------
 # mPW1PW91/6-311g(d) geom=checkpoint nmr=giao scrf=(solvent=chloroform
 )
 ----------------------------------------------------------------------

 ------------
 AT3_1ginp014
 ------------
 Structure from the checkpoint file:  "AT3_1ginp014.chk"
 Charge =  0 Multiplicity = 1

                         Standard orientation:
 ---------------------------------------------------------------------
 Center     Atomic      Atomic             Coordinates (Angstroms)
 Number     Number       Type             X           Y           Z
 ---------------------------------------------------------------------
      1          6           0        2.079056    2.744735   -0.023581
      2          6           0        2.192719    1.715026    1.107209
      3          6           0        1.894333    0.250300    0.695872
      4          6           0        2.926563   -0.344448   -0.297774
      5          6           0        2.665678   -1.840539   -0.505932
      6          8           0        3.511112   -2.305604   -1.561844
      7          7           0        0.542423    0.045568    0.142115
      8          6           0       -0.562883    0.370069    1.050448
      9          6           0       -4.376699   -0.378435   -0.878590
     10          6           0       -3.612654    0.730231   -1.248740
     11          6           0       -2.399686    0.932898   -0.605331
     12          6           0       -1.895521    0.096572    0.392247
     13          6           0       -2.699377   -0.997662    0.714483
     14          6           0       -3.925107   -1.253493    0.109448
     15          1           0       -5.329333   -0.561221   -1.364486
     16          1           0       -3.938233    1.424151   -2.014907
     17          1           0       -4.499964   -2.120578    0.413488
     18          9           0       -1.643425    2.003612   -0.964314
     19          9           0       -2.267821   -1.847871    1.674676
     20          1           0        1.070162    2.765575   -0.450168
     21          1           0        2.293165    3.751190    0.349514
     22          1           0        2.781500    2.540508   -0.838705
     23          1           0        3.191269    1.763236    1.554258
     24          1           0        1.502581    1.994834    1.912089
     25          1           0        2.777029    0.136113   -1.276056
     26          1           0        1.608520   -1.995709   -0.746568
     27          1           0        2.880267   -2.379861    0.432482
     28          1           0        3.333350   -3.247241   -1.681687
     29          1           0       -0.469178   -0.258213    1.940395
     30          1           0       -0.560796    1.416856    1.394030
     31          1           0        1.942074   -0.353027    1.615736
     32          6           0        4.383265   -0.116533    0.132150
     33          1           0        4.549400   -0.471682    1.157011
     34          1           0        5.052069   -0.673643   -0.528022
     35          1           0        4.670073    0.937502    0.090661
     36          1           0        0.443267    0.603053   -0.703829
 ---------------------------------------------------------------------

 SCF Done:  E(RmPW1PW91) =  -836.460917587     A.U. after   12 cycles

      1  C    Isotropic =   182.5346   Anisotropy =    11.7124

      2  C    Isotropic =   167.4731   Anisotropy =    23.8076

      3  C    Isotropic =   125.6587   Anisotropy =    37.9713

      4  C    Isotropic =   147.2470   Anisotropy =    20.6487

      5  C    Isotropic =   118.3006   Anisotropy =    53.7348

      6  O    Isotropic =   310.9304   Anisotropy =   101.3266

      7  N    Isotropic =   210.1684   Anisotropy =    44.7710

      8  C    Isotropic =   147.4388   Anisotropy =    47.4992

      9  C    Isotropic =    54.2061   Anisotropy =   188.1069

     10  C    Isotropic =    72.6170   Anisotropy =   146.0671

     11  C    Isotropic =    17.5188   Anisotropy =    94.3769

     12  C    Isotropic =    65.0849   Anisotropy =   138.4828

     13  C    Isotropic =    19.1826   Anisotropy =    97.4726

     14  C    Isotropic =    72.0480   Anisotropy =   146.7654

     15  H    Isotropic =    24.6154   Anisotropy =     3.1697

     16  H    Isotropic =    25.1324   Anisotropy =     5.2455

     17  H    Isotropic =    25.1284   Anisotropy =     4.7377

     18  F    Isotropic =   300.1288   Anisotropy =   113.1724

     19  F    Isotropic =   295.4669   Anisotropy =   116.4597

     20  H    Isotropic =    31.0185   Anisotropy =     8.8127

     21  H    Isotropic =    31.2253   Anisotropy =    11.5808

     22  H    Isotropic =    31.3561   Anisotropy =     7.9185

     23  H    Isotropic =    30.5514   Anisotropy =     7.7530

     24  H    Isotropic =    30.0413   Anisotropy =     6.7826

     25  H    Isotropic =    30.4387   Anisotropy =     2.8561

     26  H    Isotropic =    27.6659   Anisotropy =     8.6200

     27  H    Isotropic =    28.8468   Anisotropy =     3.7957

     28  H    Isotropic =    31.6923   Anisotropy =    20.2649

     29  H    Isotropic =    28.7495   Anisotropy =     8.6905

     30  H    Isotropic =    28.1179   Anisotropy =     4.6951

     31  H    Isotropic =    29.6668   Anisotropy =     4.0090

     32  C    Isotropic =   173.0368   Anisotropy =    23.6606

     33  H    Isotropic =    31.7450   Anisotropy =     9.2232

     34  H    Isotropic =    30.4852   Anisotropy =     9.2678

     35  H    Isotropic =    31.1689   Anisotropy =     7.9884

     36  H    Isotropic =    31.4531   Anisotropy =     8.9550

 The electronic state is 1-A.
 Alpha  occ. eigenvalues --  -24.80180 -24.79787 -19.20214 -14.37844 -10.33770
 Alpha  occ. eigenvalues --  -10.33760 -10.26992 -10.26590 -10.26401 -10.26227
 Alpha  occ. eigenvalues --  -10.26167 -10.25401 -10.25340 -10.23385 -10.22541
 Alpha  occ. eigenvalues --  -10.21849 -10.21308  -1.26938  -1.26760  -1.04192
 Alpha  occ. eigenvalues --   -0.94148  -0.90644  -0.83106  -0.79980  -0.78805
 Alpha  occ. eigenvalues --   -0.77807  -0.71802  -0.69077  -0.67828  -0.65857
 Alpha  occ. eigenvalues --   -0.64188  -0.61148  -0.58717  -0.57553  -0.55309
 Alpha  occ. eigenvalues --   -0.53022  -0.51565  -0.51517  -0.50916  -0.49121
 Alpha  occ. eigenvalues --   -0.48919  -0.48253  -0.47717  -0.46659  -0.45507
 Alpha  occ. eigenvalues --   -0.44277  -0.43668  -0.42262  -0.41656  -0.41437
 Alpha  occ. eigenvalues --   -0.40859  -0.39418  -0.38507  -0.38298  -0.37959
 Alpha  occ. eigenvalues --   -0.36809  -0.35937  -0.35476  -0.34564  -0.32943
 Alpha  occ. eigenvalues --   -0.32429  -0.28151  -0.27570  -0.27013  -0.23783
 Alpha virt. eigenvalues --   -0.02195  -0.00918   0.04914   0.05766   0.06374
 Alpha virt. eigenvalues --    0.06841   0.08163   0.09284   0.10344   0.10609
 Alpha virt. eigenvalues --    0.11816   0.11903   0.12245   0.13058   0.13385

 Mulliken charges:
               1
     1  C   -0.679515
     2  C   -0.468982
     3  C   -0.108687
     4  C   -0.293910
     5  C   -0.163195
     6  O   -0.616823
     7  N   -0.544634
     8  C   -0.348073
     9  C   -0.210644
    10  C   -0.262709
    11  C    0.330670
    12  C   -0.139884
    13  C    0.309896
    14  C   -0.270138
    15  H    0.234564
    16  H    0.238837
    17  H    0.237886
    18  F   -0.250243
    19  F   -0.246989
    20  H    0.222493
    21  H    0.230683
    22  H    0.231217
    23  H    0.238270
    24  H    0.230353
    25  H    0.220901
    26  H    0.222514
    27  H    0.192504
    28  H    0.410476
    29  H    0.249257
    30  H    0.229997
    31  H    0.227667
    32  C   -0.678418
    33  H    0.218488
    34  H    0.242169
    35  H    0.233464
    36  H    0.330538
 Sum of Mulliken charges =   0.00000

 Dipole moment (field-independent basis, Debye):
    X=             -2.5096    Y=             -0.2038    Z=              0.3357  Tot=              2.5402
 Quadrupole moment (field-independent basis, Debye-Ang):
   XX=            -96.2282   YY=            -96.5223   ZZ=           -102.7471
   XY=              1.5096   XZ=              9.9849   YZ=              1.3433

 Normal termination of Gaussian 09 at Wed Mar  6 12:20:21 2019.
