 Gaussian 09, Revision D.01,
 Gaussian 09:  EM64L-G09RevD.01 24-Apr-2013

 ----------------------------------------------------------------------
 # mPW1PW91/6-311g(d) geom=checkpoint nmr=giao scrf=(solvent=chloroform
 )
 ----------------------------------------------------------------------

 ------------
 AT3_1ginp018
 ------------
 Structure from the checkpoint file:  "AT3_1ginp018.chk"
 Charge =  0 Multiplicity = 1

                         Standard orientation:
 ---------------------------------------------------------------------
 Center     Atomic      Atomic             Coordinates (Angstroms)
 Number     Number       Type             X           Y           Z
 ---------------------------------------------------------------------
      1          6           0        2.132721    2.800805   -0.487157
      2          6           0        2.427006    1.858701    0.686926
      3          6           0        2.072973    0.369951    0.440405
      4          6           0        3.091828   -0.335965   -0.503609
      5          6           0        2.476722   -1.547745   -1.234034
      6          8           0        1.800803   -2.441258   -0.359491
      7          7           0        0.686663    0.141555   -0.018799
      8          6           0       -0.353521    0.568781    0.928662
      9          6           0       -4.254096   -0.597707   -0.559036
     10          6           0       -3.394665   -1.563845   -0.031160
     11          6           0       -2.155042   -1.154428    0.440612
     12          6           0       -1.719344    0.172834    0.424027
     13          6           0       -2.616233    1.091005   -0.123928
     14          6           0       -3.871277    0.742629   -0.610524
     15          1           0       -5.228247   -0.893070   -0.934267
     16          1           0       -3.668274   -2.611358    0.017788
     17          1           0       -4.519048    1.509639   -1.018776
     18          9           0       -1.317152   -2.085382    0.956094
     19          9           0       -2.240347    2.391428   -0.182921
     20          1           0        1.061597    2.848296   -0.712761
     21          1           0        2.457299    3.818882   -0.251309
     22          1           0        2.652670    2.495823   -1.401555
     23          1           0        3.489806    1.922190    0.948376
     24          1           0        1.884891    2.213896    1.571643
     25          1           0        3.403390    0.372866   -1.284150
     26          1           0        3.276842   -2.118777   -1.719373
     27          1           0        1.802861   -1.200905   -2.031493
     28          1           0        1.032251   -1.918594   -0.061625
     29          1           0       -0.158328    0.059380    1.878654
     30          1           0       -0.350556    1.647098    1.131907
     31          1           0        2.135181   -0.143549    1.409338
     32          6           0        4.336734   -0.766201    0.287745
     33          1           0        4.080440   -1.589971    0.962298
     34          1           0        5.126479   -1.114809   -0.386052
     35          1           0        4.750685    0.049658    0.888808
     36          1           0        0.531653    0.605178   -0.912070
 ---------------------------------------------------------------------

 SCF Done:  E(RmPW1PW91) =  -836.466928503     A.U. after   12 cycles

      1  C    Isotropic =   182.0956   Anisotropy =    12.2544

      2  C    Isotropic =   166.2254   Anisotropy =    20.3170

      3  C    Isotropic =   125.0965   Anisotropy =    43.9841

      4  C    Isotropic =   149.7688   Anisotropy =    16.6749

      5  C    Isotropic =   121.0793   Anisotropy =    48.3969

      6  O    Isotropic =   318.5381   Anisotropy =    76.7420

      7  N    Isotropic =   207.0454   Anisotropy =    45.0582

      8  C    Isotropic =   147.5586   Anisotropy =    49.7763

      9  C    Isotropic =    53.5068   Anisotropy =   189.0944

     10  C    Isotropic =    71.8809   Anisotropy =   147.0349

     11  C    Isotropic =    16.7179   Anisotropy =    98.5287

     12  C    Isotropic =    66.1826   Anisotropy =   137.6493

     13  C    Isotropic =    19.2352   Anisotropy =    96.2878

     14  C    Isotropic =    72.5564   Anisotropy =   146.0545

     15  H    Isotropic =    24.6002   Anisotropy =     3.0999

     16  H    Isotropic =    25.0749   Anisotropy =     5.3272

     17  H    Isotropic =    25.1463   Anisotropy =     4.9211

     18  F    Isotropic =   299.1435   Anisotropy =   129.1474

     19  F    Isotropic =   299.4273   Anisotropy =   117.1123

     20  H    Isotropic =    31.1909   Anisotropy =     8.3955

     21  H    Isotropic =    31.1690   Anisotropy =    11.6093

     22  H    Isotropic =    31.4507   Anisotropy =     8.1842

     23  H    Isotropic =    30.6923   Anisotropy =     8.6509

     24  H    Isotropic =    30.0453   Anisotropy =     6.9732

     25  H    Isotropic =    30.7315   Anisotropy =     5.1107

     26  H    Isotropic =    28.8528   Anisotropy =     7.6426

     27  H    Isotropic =    28.2626   Anisotropy =     5.3299

     28  H    Isotropic =    29.0605   Anisotropy =    22.1923

     29  H    Isotropic =    28.7651   Anisotropy =     5.4651

     30  H    Isotropic =    28.0303   Anisotropy =     7.1102

     31  H    Isotropic =    29.3098   Anisotropy =     3.2011

     32  C    Isotropic =   169.3201   Anisotropy =    31.6526

     33  H    Isotropic =    30.6156   Anisotropy =     7.4780

     34  H    Isotropic =    31.2690   Anisotropy =    11.5256

     35  H    Isotropic =    31.2435   Anisotropy =     8.0307

     36  H    Isotropic =    31.2556   Anisotropy =     6.8813

 The electronic state is 1-A.
 Alpha  occ. eigenvalues --  -24.80122 -24.80071 -19.18777 -14.39158 -10.33987
 Alpha  occ. eigenvalues --  -10.33892 -10.27511 -10.26763 -10.26575 -10.26424
 Alpha  occ. eigenvalues --  -10.26310 -10.25487 -10.25447 -10.23509 -10.23029
 Alpha  occ. eigenvalues --  -10.22256 -10.21602  -1.27040  -1.26910  -1.03247
 Alpha  occ. eigenvalues --   -0.94777  -0.90798  -0.83214  -0.80191  -0.78932
 Alpha  occ. eigenvalues --   -0.78091  -0.72064  -0.69156  -0.68141  -0.65993
 Alpha  occ. eigenvalues --   -0.64366  -0.61766  -0.58863  -0.57945  -0.55818
 Alpha  occ. eigenvalues --   -0.52394  -0.51661  -0.50968  -0.50770  -0.49442
 Alpha  occ. eigenvalues --   -0.49102  -0.48636  -0.47932  -0.46701  -0.45886
 Alpha  occ. eigenvalues --   -0.44335  -0.43420  -0.43097  -0.42276  -0.41379
 Alpha  occ. eigenvalues --   -0.40384  -0.39716  -0.38818  -0.38121  -0.38016
 Alpha  occ. eigenvalues --   -0.37661  -0.36678  -0.35812  -0.35098  -0.32864
 Alpha  occ. eigenvalues --   -0.32447  -0.27814  -0.27187  -0.27086  -0.25051
 Alpha virt. eigenvalues --   -0.02498  -0.01016   0.04456   0.05762   0.06598
 Alpha virt. eigenvalues --    0.07124   0.08477   0.09924   0.10309   0.10868
 Alpha virt. eigenvalues --    0.10984   0.11440   0.12637   0.13107   0.13230

 Mulliken charges:
               1
     1  C   -0.679013
     2  C   -0.455264
     3  C   -0.116542
     4  C   -0.273249
     5  C   -0.222152
     6  O   -0.602493
     7  N   -0.607932
     8  C   -0.340735
     9  C   -0.209570
    10  C   -0.259340
    11  C    0.338454
    12  C   -0.165104
    13  C    0.319197
    14  C   -0.267201
    15  H    0.235508
    16  H    0.240694
    17  H    0.238861
    18  F   -0.244601
    19  F   -0.248925
    20  H    0.223364
    21  H    0.235082
    22  H    0.230292
    23  H    0.233908
    24  H    0.231095
    25  H    0.219710
    26  H    0.220391
    27  H    0.206137
    28  H    0.413061
    29  H    0.254888
    30  H    0.240074
    31  H    0.243682
    32  C   -0.667175
    33  H    0.233065
    34  H    0.226492
    35  H    0.227428
    36  H    0.347913
 Sum of Mulliken charges =   0.00000

 Dipole moment (field-independent basis, Debye):
    X=             -2.0706    Y=              3.1740    Z=             -0.6328  Tot=              3.8422
 Quadrupole moment (field-independent basis, Debye-Ang):
   XX=            -87.5532   YY=           -112.5296   ZZ=           -100.2431
   XY=             10.2513   XZ=              2.6342   YZ=              0.4162

 Normal termination of Gaussian 09 at Wed Mar  6 12:41:17 2019.
