 Gaussian 09, Revision D.01,
 Gaussian 09:  EM64L-G09RevD.01 24-Apr-2013

 ----------------------------------------------------------------------
 # mPW1PW91/6-311g(d) geom=checkpoint nmr=giao scrf=(solvent=chloroform
 )
 ----------------------------------------------------------------------

 ------------
 AT3_1ginp007
 ------------
 Structure from the checkpoint file:  "AT3_1ginp007.chk"
 Charge =  0 Multiplicity = 1

                         Standard orientation:
 ---------------------------------------------------------------------
 Center     Atomic      Atomic             Coordinates (Angstroms)
 Number     Number       Type             X           Y           Z
 ---------------------------------------------------------------------
      1          6           0        1.587047    3.067182    0.054735
      2          6           0        2.452107    1.912841   -0.465704
      3          6           0        2.119397    0.523082    0.114218
      4          6           0        3.133337   -0.561100   -0.350329
      5          6           0        2.663684   -1.988615   -0.002862
      6          8           0        1.558322   -2.425755   -0.772751
      7          7           0        0.718817    0.121932   -0.211321
      8          6           0       -0.247627    0.291688    0.892318
      9          6           0       -4.285222   -0.414534   -0.516147
     10          6           0       -3.477628   -1.496145   -0.159979
     11          6           0       -2.189150   -1.237958    0.289651
     12          6           0       -1.657345    0.048149    0.413409
     13          6           0       -2.508325    1.087670    0.033259
     14          6           0       -3.806299    0.892724   -0.422767
     15          1           0       -5.294909   -0.592313   -0.870990
     16          1           0       -3.826719   -2.519944   -0.226532
     17          1           0       -4.412979    1.748214   -0.695810
     18          9           0       -1.400296   -2.280050    0.633961
     19          9           0       -2.038947    2.357451    0.117083
     20          1           0        0.525616    2.930104   -0.172996
     21          1           0        1.684056    3.176958    1.140756
     22          1           0        1.898059    4.012596   -0.400986
     23          1           0        2.366625    1.852470   -1.560525
     24          1           0        3.502164    2.143895   -0.260463
     25          1           0        3.203731   -0.514910   -1.447071
     26          1           0        2.450834   -2.041326    1.081631
     27          1           0        3.485503   -2.689764   -0.192805
     28          1           0        0.923533   -1.681245   -0.684528
     29          1           0       -0.001137   -0.440275    1.666970
     30          1           0       -0.195463    1.286517    1.351409
     31          1           0        2.184377    0.576255    1.210943
     32          6           0        4.530265   -0.327129    0.247806
     33          1           0        4.501996   -0.381554    1.343153
     34          1           0        5.230280   -1.092583   -0.102584
     35          1           0        4.948263    0.644936   -0.024867
     36          1           0        0.395625    0.650758   -1.018501
 ---------------------------------------------------------------------

 SCF Done:  E(RmPW1PW91) =  -836.467571377     A.U. after   12 cycles

      1  C    Isotropic =   175.6496   Anisotropy =    18.1832

      2  C    Isotropic =   155.2222   Anisotropy =    27.4886

      3  C    Isotropic =   117.9490   Anisotropy =    27.7150

      4  C    Isotropic =   142.8535   Anisotropy =    10.2532

      5  C    Isotropic =   115.7528   Anisotropy =    58.8927

      6  O    Isotropic =   290.1822   Anisotropy =    62.3289

      7  N    Isotropic =   197.3862   Anisotropy =    70.2508

      8  C    Isotropic =   143.9745   Anisotropy =    54.4548

      9  C    Isotropic =    53.0060   Anisotropy =   189.7407

     10  C    Isotropic =    71.8332   Anisotropy =   147.4767

     11  C    Isotropic =    17.4762   Anisotropy =    99.5242

     12  C    Isotropic =    67.5270   Anisotropy =   136.1076

     13  C    Isotropic =    18.4930   Anisotropy =    96.2418

     14  C    Isotropic =    72.4304   Anisotropy =   146.2995

     15  H    Isotropic =    24.6099   Anisotropy =     3.1297

     16  H    Isotropic =    25.1037   Anisotropy =     5.2230

     17  H    Isotropic =    25.1327   Anisotropy =     5.1047

     18  F    Isotropic =   293.2818   Anisotropy =   128.3323

     19  F    Isotropic =   300.8891   Anisotropy =   112.5188

     20  H    Isotropic =    30.5077   Anisotropy =     8.7420

     21  H    Isotropic =    31.0680   Anisotropy =     7.8726

     22  H    Isotropic =    30.9485   Anisotropy =    11.3072

     23  H    Isotropic =    30.9212   Anisotropy =     5.9591

     24  H    Isotropic =    30.1473   Anisotropy =     7.6026

     25  H    Isotropic =    30.6247   Anisotropy =     4.5135

     26  H    Isotropic =    28.1725   Anisotropy =     3.9905

     27  H    Isotropic =    28.5191   Anisotropy =     6.4595

     28  H    Isotropic =    27.0034   Anisotropy =    24.2230

     29  H    Isotropic =    28.2833   Anisotropy =     5.4651

     30  H    Isotropic =    28.0293   Anisotropy =     4.9980

     31  H    Isotropic =    29.7223   Anisotropy =     4.1026

     32  C    Isotropic =   171.1834   Anisotropy =    31.0917

     33  H    Isotropic =    31.6338   Anisotropy =     8.1456

     34  H    Isotropic =    31.3449   Anisotropy =    10.7588

     35  H    Isotropic =    31.0776   Anisotropy =     8.3654

     36  H    Isotropic =    31.9766   Anisotropy =     7.0084

 The electronic state is 1-A.
 Alpha  occ. eigenvalues --  -24.80345 -24.79983 -19.17676 -14.39628 -10.34140
 Alpha  occ. eigenvalues --  -10.34006 -10.27720 -10.26956 -10.26922 -10.26416
 Alpha  occ. eigenvalues --  -10.26224 -10.25583 -10.25510 -10.23451 -10.23320
 Alpha  occ. eigenvalues --  -10.22207 -10.22103  -1.27185  -1.26947  -1.02511
 Alpha  occ. eigenvalues --   -0.94840  -0.90900  -0.83452  -0.80431  -0.79024
 Alpha  occ. eigenvalues --   -0.78376  -0.72305  -0.68443  -0.68008  -0.66092
 Alpha  occ. eigenvalues --   -0.64256  -0.62076  -0.59371  -0.58588  -0.55960
 Alpha  occ. eigenvalues --   -0.52450  -0.51814  -0.51624  -0.50809  -0.49233
 Alpha  occ. eigenvalues --   -0.49070  -0.48817  -0.47214  -0.46741  -0.44782
 Alpha  occ. eigenvalues --   -0.44437  -0.43585  -0.43008  -0.42266  -0.41674
 Alpha  occ. eigenvalues --   -0.40101  -0.39596  -0.39517  -0.39266  -0.38226
 Alpha  occ. eigenvalues --   -0.37857  -0.36542  -0.35277  -0.34953  -0.33512
 Alpha  occ. eigenvalues --   -0.33112  -0.27996  -0.27216  -0.26373  -0.24902
 Alpha virt. eigenvalues --   -0.02666  -0.01117   0.05027   0.05940   0.06356
 Alpha virt. eigenvalues --    0.07126   0.07878   0.09981   0.10346   0.10775
 Alpha virt. eigenvalues --    0.10856   0.11679   0.12162   0.12953   0.13203

 Mulliken charges:
               1
     1  C   -0.677863
     2  C   -0.462591
     3  C   -0.071569
     4  C   -0.294178
     5  C   -0.179409
     6  O   -0.607111
     7  N   -0.632837
     8  C   -0.330204
     9  C   -0.208924
    10  C   -0.260663
    11  C    0.333762
    12  C   -0.184215
    13  C    0.318838
    14  C   -0.260449
    15  H    0.236317
    16  H    0.241146
    17  H    0.240381
    18  F   -0.239629
    19  F   -0.246472
    20  H    0.232267
    21  H    0.224720
    22  H    0.232667
    23  H    0.225158
    24  H    0.237032
    25  H    0.214097
    26  H    0.185186
    27  H    0.211666
    28  H    0.411963
    29  H    0.261554
    30  H    0.248190
    31  H    0.227195
    32  C   -0.669565
    33  H    0.223064
    34  H    0.233206
    35  H    0.235492
    36  H    0.351777
 Sum of Mulliken charges =   0.00000

 Dipole moment (field-independent basis, Debye):
    X=             -1.7420    Y=              3.6295    Z=              0.6341  Tot=              4.0755
 Quadrupole moment (field-independent basis, Debye-Ang):
   XX=            -83.4896   YY=           -112.7151   ZZ=           -102.5454
   XY=              7.4277   XZ=              6.0455   YZ=             -4.1889

 Normal termination of Gaussian 09 at Wed Mar  6 12:56:49 2019.
