 Gaussian 09, Revision D.01,
 Gaussian 09:  EM64L-G09RevD.01 24-Apr-2013

 ----------------------------------------------------------------------
 # mPW1PW91/6-311g(d) geom=checkpoint nmr=giao scrf=(solvent=chloroform
 )
 ----------------------------------------------------------------------

 ------------
 AT3_1ginp013
 ------------
 Structure from the checkpoint file:  "AT3_1ginp013.chk"
 Charge =  0 Multiplicity = 1

                         Standard orientation:
 ---------------------------------------------------------------------
 Center     Atomic      Atomic             Coordinates (Angstroms)
 Number     Number       Type             X           Y           Z
 ---------------------------------------------------------------------
      1          6           0       -1.821152    2.862177    1.526936
      2          6           0       -2.426034    1.474183    1.295277
      3          6           0       -1.819978    0.734691    0.085744
      4          6           0       -2.604597   -0.547358   -0.328950
      5          6           0       -4.044012   -0.229528   -0.742588
      6          8           0       -4.551051   -1.347164   -1.474696
      7          7           0       -0.391309    0.509184    0.355053
      8          6           0        0.394153   -0.003422   -0.772250
      9          6           0        4.563425   -0.432270    0.352448
     10          6           0        4.190861    0.589272   -0.521255
     11          6           0        2.849485    0.712077   -0.867532
     12          6           0        1.850991   -0.139569   -0.393228
     13          6           0        2.285943   -1.139009    0.478840
     14          6           0        3.607553   -1.311586    0.865553
     15          1           0        5.604351   -0.543866    0.637111
     16          1           0        4.913949    1.284413   -0.931934
     17          1           0        3.868788   -2.111874    1.548090
     18          9           0        2.494874    1.703272   -1.717768
     19          9           0        1.345640   -1.983585    0.979639
     20          1           0       -2.255131    3.338031    2.412453
     21          1           0       -0.739382    2.794811    1.663770
     22          1           0       -2.008720    3.519546    0.669923
     23          1           0       -2.291411    0.860856    2.196497
     24          1           0       -3.508648    1.570698    1.155052
     25          1           0       -2.129112   -0.924879   -1.244415
     26          1           0       -4.061503    0.681513   -1.362842
     27          1           0       -4.667134   -0.036376    0.143345
     28          1           0       -5.489880   -1.189788   -1.639386
     29          1           0        0.047235   -0.979662   -1.147918
     30          1           0        0.306775    0.705581   -1.599963
     31          1           0       -1.862404    1.419653   -0.775178
     32          6           0       -2.558636   -1.672942    0.714553
     33          1           0       -3.012853   -1.365167    1.663234
     34          1           0       -3.111136   -2.541711    0.347668
     35          1           0       -1.531963   -1.993523    0.919372
     36          1           0       -0.296881   -0.132704    1.139192
 ---------------------------------------------------------------------

 SCF Done:  E(RmPW1PW91) =  -836.460781446     A.U. after   12 cycles

      1  C    Isotropic =   175.0451   Anisotropy =    23.0866

      2  C    Isotropic =   162.2062   Anisotropy =    17.0582

      3  C    Isotropic =   123.0711   Anisotropy =    20.3871

      4  C    Isotropic =   150.7820   Anisotropy =    18.4348

      5  C    Isotropic =   117.6723   Anisotropy =    50.4525

      6  O    Isotropic =   307.4133   Anisotropy =   102.1227

      7  N    Isotropic =   209.6942   Anisotropy =    47.6119

      8  C    Isotropic =   147.4973   Anisotropy =    46.2940

      9  C    Isotropic =    54.3494   Anisotropy =   187.5498

     10  C    Isotropic =    71.9728   Anisotropy =   146.6794

     11  C    Isotropic =    19.2752   Anisotropy =    97.5036

     12  C    Isotropic =    65.0874   Anisotropy =   138.5539

     13  C    Isotropic =    17.4613   Anisotropy =    94.1618

     14  C    Isotropic =    72.6619   Anisotropy =   145.8090

     15  H    Isotropic =    24.6378   Anisotropy =     3.1410

     16  H    Isotropic =    25.1031   Anisotropy =     4.7579

     17  H    Isotropic =    25.1251   Anisotropy =     5.2921

     18  F    Isotropic =   295.3348   Anisotropy =   116.4023

     19  F    Isotropic =   300.1917   Anisotropy =   114.0819

     20  H    Isotropic =    31.2796   Anisotropy =    11.1644

     21  H    Isotropic =    30.6568   Anisotropy =     6.5588

     22  H    Isotropic =    31.4584   Anisotropy =     9.3238

     23  H    Isotropic =    31.0590   Anisotropy =     5.1959

     24  H    Isotropic =    31.1264   Anisotropy =     7.4701

     25  H    Isotropic =    29.6398   Anisotropy =     4.2291

     26  H    Isotropic =    28.4326   Anisotropy =     4.5371

     27  H    Isotropic =    28.5806   Anisotropy =     4.7644

     28  H    Isotropic =    31.4239   Anisotropy =    20.6924

     29  H    Isotropic =    27.9868   Anisotropy =     4.2314

     30  H    Isotropic =    28.6277   Anisotropy =     8.9324

     31  H    Isotropic =    29.4669   Anisotropy =     3.8774

     32  C    Isotropic =   178.4796   Anisotropy =    19.4459

     33  H    Isotropic =    31.6411   Anisotropy =     8.3783

     34  H    Isotropic =    30.6792   Anisotropy =     9.2202

     35  H    Isotropic =    31.0092   Anisotropy =     9.3101

     36  H    Isotropic =    31.5245   Anisotropy =     9.5029

 The electronic state is 1-A.
 Alpha  occ. eigenvalues --  -24.80131 -24.79699 -19.20722 -14.37750 -10.33688
 Alpha  occ. eigenvalues --  -10.33681 -10.27385 -10.26894 -10.26514 -10.26168
 Alpha  occ. eigenvalues --  -10.26093 -10.25337 -10.25268 -10.23325 -10.22649
 Alpha  occ. eigenvalues --  -10.21479 -10.21225  -1.26877  -1.26673  -1.04736
 Alpha  occ. eigenvalues --   -0.94096  -0.90576  -0.83019  -0.80002  -0.78732
 Alpha  occ. eigenvalues --   -0.78002  -0.71406  -0.70034  -0.67027  -0.65770
 Alpha  occ. eigenvalues --   -0.63834  -0.62201  -0.58586  -0.57285  -0.55179
 Alpha  occ. eigenvalues --   -0.53459  -0.52070  -0.51443  -0.50912  -0.49028
 Alpha  occ. eigenvalues --   -0.48823  -0.48114  -0.47641  -0.46516  -0.45648
 Alpha  occ. eigenvalues --   -0.44699  -0.43157  -0.42504  -0.41863  -0.41300
 Alpha  occ. eigenvalues --   -0.40583  -0.39229  -0.38483  -0.38248  -0.37885
 Alpha  occ. eigenvalues --   -0.37415  -0.36363  -0.34981  -0.34331  -0.33377
 Alpha  occ. eigenvalues --   -0.32300  -0.28520  -0.27478  -0.26942  -0.23877
 Alpha virt. eigenvalues --   -0.02102  -0.00847   0.05075   0.05567   0.06623
 Alpha virt. eigenvalues --    0.07103   0.07319   0.09089   0.10247   0.10807
 Alpha virt. eigenvalues --    0.11249   0.11919   0.12590   0.12878   0.13411

 Mulliken charges:
               1
     1  C   -0.649168
     2  C   -0.447982
     3  C   -0.131297
     4  C   -0.293589
     5  C   -0.174839
     6  O   -0.611854
     7  N   -0.538289
     8  C   -0.351865
     9  C   -0.210854
    10  C   -0.270049
    11  C    0.307511
    12  C   -0.136891
    13  C    0.331084
    14  C   -0.262546
    15  H    0.234232
    16  H    0.237796
    17  H    0.238492
    18  F   -0.246760
    19  F   -0.250925
    20  H    0.219316
    21  H    0.230667
    22  H    0.215788
    23  H    0.221304
    24  H    0.229653
    25  H    0.234101
    26  H    0.207956
    27  H    0.206665
    28  H    0.411479
    29  H    0.232137
    30  H    0.250192
    31  H    0.229355
    32  C   -0.678700
    33  H    0.223720
    34  H    0.240084
    35  H    0.225317
    36  H    0.328759
 Sum of Mulliken charges =   0.00000

 Dipole moment (field-independent basis, Debye):
    X=             -0.1471    Y=              0.1952    Z=              0.6234  Tot=              0.6697
 Quadrupole moment (field-independent basis, Debye-Ang):
   XX=            -72.4871   YY=           -109.0245   ZZ=           -103.3509
   XY=             -7.1610   XZ=              3.5342   YZ=             -3.4563

 Normal termination of Gaussian 09 at Wed Mar  6 12:49:10 2019.
