 Gaussian 09, Revision D.01,
 Gaussian 09:  EM64L-G09RevD.01 24-Apr-2013

 ----------------------------------------------------------------------
 # mPW1PW91/6-311g(d) geom=checkpoint nmr=giao scrf=(solvent=chloroform
 )
 ----------------------------------------------------------------------

 ------------
 AT3_1ginp017
 ------------
 Structure from the checkpoint file:  "AT3_1ginp017.chk"
 Charge =  0 Multiplicity = 1

                         Standard orientation:
 ---------------------------------------------------------------------
 Center     Atomic      Atomic             Coordinates (Angstroms)
 Number     Number       Type             X           Y           Z
 ---------------------------------------------------------------------
      1          6           0        2.091735    2.744660    0.005563
      2          6           0        2.199455    1.702242    1.125209
      3          6           0        1.894464    0.243602    0.697910
      4          6           0        2.923343   -0.350953   -0.299405
      5          6           0        2.672116   -1.858384   -0.490764
      6          8           0        3.505352   -2.442592   -1.494986
      7          7           0        0.543390    0.051186    0.137628
      8          6           0       -0.562608    0.354942    1.052596
      9          6           0       -4.379099   -0.359140   -0.885122
     10          6           0       -3.601041    0.738718   -1.258570
     11          6           0       -2.387825    0.930350   -0.612519
     12          6           0       -1.895538    0.092977    0.390045
     13          6           0       -2.713406   -0.989831    0.715858
     14          6           0       -3.940343   -1.234347    0.108418
     15          1           0       -5.332423   -0.533259   -1.372800
     16          1           0       -3.916461    1.432831   -2.028820
     17          1           0       -4.526007   -2.093206    0.415144
     18          9           0       -1.617891    1.990736   -0.974964
     19          9           0       -2.294942   -1.840147    1.681480
     20          1           0        2.792105    2.544503   -0.812529
     21          1           0        1.082558    2.777755   -0.419623
     22          1           0        2.313507    3.745490    0.389051
     23          1           0        3.198296    1.740257    1.572752
     24          1           0        1.510241    1.976975    1.932691
     25          1           0        2.756321    0.129024   -1.277727
     26          1           0        1.611878   -2.030077   -0.704449
     27          1           0        2.916357   -2.389212    0.437709
     28          1           0        3.230489   -2.071850   -2.344663
     29          1           0       -0.467989   -0.291290    1.929300
     30          1           0       -0.561184    1.394511    1.417940
     31          1           0        1.937070   -0.369544    1.611482
     32          6           0        4.382955   -0.111052    0.109319
     33          1           0        4.561849   -0.447763    1.138019
     34          1           0        5.042581   -0.683165   -0.548058
     35          1           0        4.669825    0.941857    0.044668
     36          1           0        0.444688    0.630579   -0.693474
 ---------------------------------------------------------------------

 SCF Done:  E(RmPW1PW91) =  -836.461479756     A.U. after   12 cycles

      1  C    Isotropic =   182.4618   Anisotropy =    11.8166

      2  C    Isotropic =   167.3103   Anisotropy =    23.2453

      3  C    Isotropic =   125.8438   Anisotropy =    37.8682

      4  C    Isotropic =   144.4125   Anisotropy =    20.4349

      5  C    Isotropic =   117.5913   Anisotropy =    54.6143

      6  O    Isotropic =   306.1610   Anisotropy =   103.4575

      7  N    Isotropic =   210.9278   Anisotropy =    43.8603

      8  C    Isotropic =   147.3629   Anisotropy =    47.3611

      9  C    Isotropic =    54.1990   Anisotropy =   188.1288

     10  C    Isotropic =    72.6850   Anisotropy =   145.9208

     11  C    Isotropic =    17.5077   Anisotropy =    94.0111

     12  C    Isotropic =    65.1416   Anisotropy =   138.2892

     13  C    Isotropic =    19.2630   Anisotropy =    97.5086

     14  C    Isotropic =    71.9186   Anisotropy =   146.9996

     15  H    Isotropic =    24.6162   Anisotropy =     3.1827

     16  H    Isotropic =    25.1448   Anisotropy =     5.2550

     17  H    Isotropic =    25.1152   Anisotropy =     4.7210

     18  F    Isotropic =   300.1931   Anisotropy =   112.6402

     19  F    Isotropic =   295.1462   Anisotropy =   116.7318

     20  H    Isotropic =    31.4224   Anisotropy =     7.8849

     21  H    Isotropic =    31.0467   Anisotropy =     8.7797

     22  H    Isotropic =    31.2255   Anisotropy =    11.5421

     23  H    Isotropic =    30.5703   Anisotropy =     7.7531

     24  H    Isotropic =    30.0406   Anisotropy =     6.8469

     25  H    Isotropic =    30.8378   Anisotropy =     2.5289

     26  H    Isotropic =    27.5993   Anisotropy =     8.5262

     27  H    Isotropic =    29.0398   Anisotropy =     4.3412

     28  H    Isotropic =    32.5485   Anisotropy =    16.1334

     29  H    Isotropic =    28.7275   Anisotropy =     8.8350

     30  H    Isotropic =    28.1336   Anisotropy =     4.6953

     31  H    Isotropic =    29.7012   Anisotropy =     4.0195

     32  C    Isotropic =   173.3280   Anisotropy =    22.4466

     33  H    Isotropic =    31.6947   Anisotropy =     9.2884

     34  H    Isotropic =    30.4703   Anisotropy =     9.0688

     35  H    Isotropic =    31.2032   Anisotropy =     7.8822

     36  H    Isotropic =    31.4553   Anisotropy =     9.1331

 The electronic state is 1-A.
 Alpha  occ. eigenvalues --  -24.80273 -24.79806 -19.20415 -14.37966 -10.33815
 Alpha  occ. eigenvalues --  -10.33809 -10.27063 -10.26649 -10.26448 -10.26354
 Alpha  occ. eigenvalues --  -10.26205 -10.25455 -10.25374 -10.23568 -10.22648
 Alpha  occ. eigenvalues --  -10.21993 -10.21472  -1.27016  -1.26784  -1.04350
 Alpha  occ. eigenvalues --   -0.94258  -0.90700  -0.83160  -0.80017  -0.78850
 Alpha  occ. eigenvalues --   -0.77862  -0.71891  -0.69201  -0.67931  -0.65902
 Alpha  occ. eigenvalues --   -0.64319  -0.61855  -0.58771  -0.57928  -0.55335
 Alpha  occ. eigenvalues --   -0.52355  -0.51570  -0.51343  -0.50868  -0.49404
 Alpha  occ. eigenvalues --   -0.49002  -0.48932  -0.47654  -0.46659  -0.45073
 Alpha  occ. eigenvalues --   -0.44345  -0.43416  -0.42777  -0.42054  -0.41494
 Alpha  occ. eigenvalues --   -0.40898  -0.39542  -0.38492  -0.38030  -0.37754
 Alpha  occ. eigenvalues --   -0.37462  -0.36423  -0.35771  -0.35011  -0.32918
 Alpha  occ. eigenvalues --   -0.32473  -0.28356  -0.27622  -0.27059  -0.23850
 Alpha virt. eigenvalues --   -0.02237  -0.00966   0.04791   0.05481   0.06186
 Alpha virt. eigenvalues --    0.07102   0.08249   0.09318   0.10285   0.10525
 Alpha virt. eigenvalues --    0.11577   0.11834   0.12265   0.12873   0.13334

 Mulliken charges:
               1
     1  C   -0.680141
     2  C   -0.466872
     3  C   -0.111388
     4  C   -0.301408
     5  C   -0.186965
     6  O   -0.595721
     7  N   -0.544686
     8  C   -0.348899
     9  C   -0.210632
    10  C   -0.262631
    11  C    0.330026
    12  C   -0.137391
    13  C    0.308470
    14  C   -0.269669
    15  H    0.234772
    16  H    0.238746
    17  H    0.238430
    18  F   -0.251194
    19  F   -0.246241
    20  H    0.229569
    21  H    0.222366
    22  H    0.231774
    23  H    0.238924
    24  H    0.230924
    25  H    0.208448
    26  H    0.227304
    27  H    0.213514
    28  H    0.400472
    29  H    0.250991
    30  H    0.230519
    31  H    0.230602
    32  C   -0.673676
    33  H    0.222500
    34  H    0.236602
    35  H    0.233718
    36  H    0.328844
 Sum of Mulliken charges =   0.00000

 Dipole moment (field-independent basis, Debye):
    X=             -2.7261    Y=              2.3392    Z=             -0.8368  Tot=              3.6884
 Quadrupole moment (field-independent basis, Debye-Ang):
   XX=            -97.2667   YY=           -110.7313   ZZ=            -96.5014
   XY=             10.4001   XZ=              6.2600   YZ=             -0.6255

 Normal termination of Gaussian 09 at Wed Mar  6 11:31:07 2019.
