 Gaussian 09, Revision D.01,
 Gaussian 09:  EM64L-G09RevD.01 24-Apr-2013

 ----------------------------------------------------------------------
 # mPW1PW91/6-311g(d) geom=checkpoint nmr=giao scrf=(solvent=chloroform
 )
 ----------------------------------------------------------------------

 ------------
 AT3_2ginp009
 ------------
 Structure from the checkpoint file:  "AT3_2ginp009.chk"
 Charge =  0 Multiplicity = 1

                         Standard orientation:
 ---------------------------------------------------------------------
 Center     Atomic      Atomic             Coordinates (Angstroms)
 Number     Number       Type             X           Y           Z
 ---------------------------------------------------------------------
      1          6           0       -3.977728   -1.746672   -1.176480
      2          6           0       -2.585118   -1.680241   -0.537187
      3          6           0       -2.034721   -0.250357   -0.353204
      4          6           0       -2.922606    0.660214    0.536598
      5          6           0       -2.246016    2.026476    0.789440
      6          8           0       -1.592540    2.571436   -0.348220
      7          7           0       -0.639224   -0.192759    0.126469
      8          6           0        0.363162   -0.802436   -0.757960
      9          6           0        4.332849    0.450015    0.464041
     10          6           0        3.482252    1.355017   -0.175190
     11          6           0        2.222687    0.915157   -0.556442
     12          6           0        1.754359   -0.383589   -0.343762
     13          6           0        2.646096   -1.240037    0.303194
     14          6           0        3.920968   -0.859593    0.708900
     15          1           0        5.322770    0.769253    0.772510
     16          1           0        3.778697    2.377415   -0.378601
     17          1           0        4.561715   -1.580040    1.203912
     18          9           0        1.396448    1.788410   -1.185920
     19          9           0        2.247653   -2.511768    0.546190
     20          1           0       -4.747517   -1.305315   -0.535999
     21          1           0       -3.997197   -1.212072   -2.133238
     22          1           0       -4.267404   -2.784097   -1.371728
     23          1           0       -2.592087   -2.198165    0.430657
     24          1           0       -1.887289   -2.238328   -1.172593
     25          1           0       -3.840894    0.844086   -0.035543
     26          1           0       -1.540180    1.927265    1.627234
     27          1           0       -3.008317    2.752324    1.095009
     28          1           0       -0.799183    2.021817   -0.460153
     29          1           0        0.321034   -1.898143   -0.797147
     30          1           0        0.169080   -0.435809   -1.771915
     31          1           0       -2.015890    0.223562   -1.343936
     32          6           0       -3.321390    0.046513    1.888224
     33          1           0       -3.945085   -0.844066    1.773295
     34          1           0       -2.444284   -0.232975    2.484184
     35          1           0       -3.892783    0.770569    2.479864
     36          1           0       -0.565976   -0.612047    1.051208
 ---------------------------------------------------------------------

 SCF Done:  E(RmPW1PW91) =  -836.466116359     A.U. after   12 cycles

      1  C    Isotropic =   176.4642   Anisotropy =    20.0572

      2  C    Isotropic =   162.6340   Anisotropy =    20.7995

      3  C    Isotropic =   126.2692   Anisotropy =    43.0310

      4  C    Isotropic =   150.5768   Anisotropy =    15.3511

      5  C    Isotropic =   120.0805   Anisotropy =    66.4266

      6  O    Isotropic =   314.6698   Anisotropy =    46.1392

      7  N    Isotropic =   203.4404   Anisotropy =    43.2437

      8  C    Isotropic =   147.1798   Anisotropy =    49.2821

      9  C    Isotropic =    53.8695   Anisotropy =   188.7209

     10  C    Isotropic =    72.0019   Anisotropy =   146.9171

     11  C    Isotropic =    16.8109   Anisotropy =    96.8361

     12  C    Isotropic =    65.1737   Anisotropy =   138.7936

     13  C    Isotropic =    19.3914   Anisotropy =    96.2265

     14  C    Isotropic =    72.4216   Anisotropy =   145.8893

     15  H    Isotropic =    24.6139   Anisotropy =     3.1113

     16  H    Isotropic =    25.0756   Anisotropy =     5.4409

     17  H    Isotropic =    25.1677   Anisotropy =     4.7429

     18  F    Isotropic =   302.2390   Anisotropy =   127.2050

     19  F    Isotropic =   301.2001   Anisotropy =   117.3343

     20  H    Isotropic =    31.1318   Anisotropy =     7.4525

     21  H    Isotropic =    31.3180   Anisotropy =     9.2166

     22  H    Isotropic =    30.9996   Anisotropy =    11.5479

     23  H    Isotropic =    30.8428   Anisotropy =     5.0136

     24  H    Isotropic =    29.9821   Anisotropy =     6.5523

     25  H    Isotropic =    29.9958   Anisotropy =     6.6177

     26  H    Isotropic =    28.6465   Anisotropy =     4.1318

     27  H    Isotropic =    28.5854   Anisotropy =     6.9553

     28  H    Isotropic =    29.6923   Anisotropy =    19.9031

     29  H    Isotropic =    27.8545   Anisotropy =     8.0174

     30  H    Isotropic =    28.8110   Anisotropy =     4.6112

     31  H    Isotropic =    28.9757   Anisotropy =     1.6523

     32  C    Isotropic =   178.1315   Anisotropy =    17.7830

     33  H    Isotropic =    31.2405   Anisotropy =     8.7095

     34  H    Isotropic =    31.9172   Anisotropy =     7.2236

     35  H    Isotropic =    31.7209   Anisotropy =    10.8709

     36  H    Isotropic =    31.8413   Anisotropy =     7.6856

 The electronic state is 1-A.
 Alpha  occ. eigenvalues --  -24.80224 -24.79991 -19.19339 -14.38649 -10.33903
 Alpha  occ. eigenvalues --  -10.33855 -10.27380 -10.26676 -10.26480 -10.26254
 Alpha  occ. eigenvalues --  -10.26220 -10.25441 -10.25425 -10.23399 -10.22789
 Alpha  occ. eigenvalues --  -10.22168 -10.22021  -1.26997  -1.26923  -1.03654
 Alpha  occ. eigenvalues --   -0.94435  -0.90736  -0.83228  -0.80160  -0.78896
 Alpha  occ. eigenvalues --   -0.78142  -0.72073  -0.68826  -0.67804  -0.65953
 Alpha  occ. eigenvalues --   -0.64163  -0.62829  -0.58813  -0.57281  -0.55680
 Alpha  occ. eigenvalues --   -0.52507  -0.52212  -0.51582  -0.51083  -0.49749
 Alpha  occ. eigenvalues --   -0.49100  -0.47698  -0.46846  -0.46722  -0.46288
 Alpha  occ. eigenvalues --   -0.43864  -0.43190  -0.42370  -0.42022  -0.41471
 Alpha  occ. eigenvalues --   -0.40844  -0.40028  -0.39368  -0.38381  -0.37985
 Alpha  occ. eigenvalues --   -0.37735  -0.36555  -0.35849  -0.34892  -0.33104
 Alpha  occ. eigenvalues --   -0.32029  -0.27760  -0.27371  -0.27092  -0.24619
 Alpha virt. eigenvalues --   -0.02410  -0.00974   0.04904   0.05594   0.06334
 Alpha virt. eigenvalues --    0.07076   0.07620   0.10151   0.10419   0.10930
 Alpha virt. eigenvalues --    0.11232   0.11631   0.12293   0.13156   0.13485

 Mulliken charges:
               1
     1  C   -0.665718
     2  C   -0.454470
     3  C   -0.149862
     4  C   -0.271961
     5  C   -0.199077
     6  O   -0.599076
     7  N   -0.573222
     8  C   -0.365343
     9  C   -0.210853
    10  C   -0.256402
    11  C    0.332196
    12  C   -0.137834
    13  C    0.314628
    14  C   -0.267541
    15  H    0.235029
    16  H    0.240915
    17  H    0.238304
    18  F   -0.248849
    19  F   -0.249506
    20  H    0.230510
    21  H    0.226495
    22  H    0.228531
    23  H    0.222332
    24  H    0.234084
    25  H    0.232960
    26  H    0.199318
    27  H    0.219188
    28  H    0.411721
    29  H    0.237766
    30  H    0.255085
    31  H    0.239997
    32  C   -0.680174
    33  H    0.238569
    34  H    0.221588
    35  H    0.234059
    36  H    0.336612
 Sum of Mulliken charges =   0.00000

 Dipole moment (field-independent basis, Debye):
    X=              1.7772    Y=             -2.6806    Z=              1.3731  Tot=              3.4971
 Quadrupole moment (field-independent basis, Debye-Ang):
   XX=            -86.3700   YY=           -111.8147   ZZ=           -101.2203
   XY=              8.3307   XZ=              0.5419   YZ=              3.3441

 Normal termination of Gaussian 09 at Wed Mar  6 12:27:25 2019.
