 Gaussian 09, Revision D.01,
 Gaussian 09:  EM64L-G09RevD.01 24-Apr-2013

 ----------------------------------------------------------------------
 # mPW1PW91/6-311g(d) geom=checkpoint nmr=giao scrf=(solvent=chloroform
 )
 ----------------------------------------------------------------------

 ------------
 AT3_1ginp006
 ------------
 Structure from the checkpoint file:  "AT3_1ginp006.chk"
 Charge =  0 Multiplicity = 1

                         Standard orientation:
 ---------------------------------------------------------------------
 Center     Atomic      Atomic             Coordinates (Angstroms)
 Number     Number       Type             X           Y           Z
 ---------------------------------------------------------------------
      1          6           0       -3.328907   -1.780931   -1.106461
      2          6           0       -2.201680   -1.714335   -0.069386
      3          6           0       -1.538040   -0.327001    0.104219
      4          6           0       -2.493072    0.793529    0.596473
      5          6           0       -1.724689    2.101435    0.885883
      6          8           0       -1.182320    2.727513   -0.263514
      7          7           0       -0.832609    0.147690   -1.113169
      8          6           0        0.364319   -0.609421   -1.522172
      9          6           0        3.700842    0.053170    1.169875
     10          6           0        3.013405   -1.159792    1.214313
     11          6           0        1.945061   -1.345424    0.344369
     12          6           0        1.523128   -0.386983   -0.578099
     13          6           0        2.247311    0.808220   -0.572507
     14          6           0        3.321428    1.053354    0.272378
     15          1           0        4.537249    0.221798    1.839947
     16          1           0        3.285663   -1.949989    1.904230
     17          1           0        3.839013    2.003993    0.218807
     18          9           0        1.269329   -2.519733    0.397314
     19          9           0        1.878930    1.769562   -1.449375
     20          1           0       -2.985429   -1.489615   -2.105700
     21          1           0       -3.716980   -2.801004   -1.186906
     22          1           0       -4.168108   -1.129164   -0.842768
     23          1           0       -2.581183   -2.043699    0.903932
     24          1           0       -1.420787   -2.437208   -0.331563
     25          1           0       -3.211936    1.019131   -0.204471
     26          1           0       -0.941065    1.886842    1.636637
     27          1           0       -2.411999    2.821311    1.347058
     28          1           0       -0.750853    1.991882   -0.750317
     29          1           0        0.186701   -1.687569   -1.614039
     30          1           0        0.644927   -0.241113   -2.513104
     31          1           0       -0.763392   -0.438463    0.875278
     32          6           0       -3.274798    0.376869    1.851955
     33          1           0       -2.596345    0.088687    2.664058
     34          1           0       -3.888319    1.208478    2.213502
     35          1           0       -3.944639   -0.465509    1.663091
     36          1           0       -1.485866    0.162684   -1.893876
 ---------------------------------------------------------------------

 SCF Done:  E(RmPW1PW91) =  -836.469418771     A.U. after   12 cycles

      1  C    Isotropic =   182.1029   Anisotropy =    12.7580

      2  C    Isotropic =   167.2119   Anisotropy =    21.5374

      3  C    Isotropic =   124.4248   Anisotropy =    29.1267

      4  C    Isotropic =   148.9373   Anisotropy =    13.4062

      5  C    Isotropic =   114.3161   Anisotropy =    54.6180

      6  O    Isotropic =   288.3942   Anisotropy =    75.1508

      7  N    Isotropic =   205.2568   Anisotropy =    55.7719

      8  C    Isotropic =   149.9616   Anisotropy =    47.8895

      9  C    Isotropic =    53.1979   Anisotropy =   189.7409

     10  C    Isotropic =    73.1605   Anisotropy =   145.4176

     11  C    Isotropic =    17.7936   Anisotropy =    98.8957

     12  C    Isotropic =    67.5101   Anisotropy =   138.4879

     13  C    Isotropic =    17.1733   Anisotropy =    99.8873

     14  C    Isotropic =    71.6034   Anisotropy =   147.8054

     15  H    Isotropic =    24.5691   Anisotropy =     3.0243

     16  H    Isotropic =    25.1399   Anisotropy =     5.0194

     17  H    Isotropic =    25.0304   Anisotropy =     5.0906

     18  F    Isotropic =   296.8447   Anisotropy =   119.4688

     19  F    Isotropic =   294.8041   Anisotropy =   136.8444

     20  H    Isotropic =    31.3199   Anisotropy =     7.5793

     21  H    Isotropic =    31.1951   Anisotropy =    11.7880

     22  H    Isotropic =    31.3284   Anisotropy =     8.5331

     23  H    Isotropic =    30.6756   Anisotropy =     7.0697

     24  H    Isotropic =    29.9203   Anisotropy =     8.0194

     25  H    Isotropic =    30.4670   Anisotropy =     4.5526

     26  H    Isotropic =    28.8646   Anisotropy =     3.1783

     27  H    Isotropic =    28.7021   Anisotropy =     6.7582

     28  H    Isotropic =    27.5377   Anisotropy =    23.4939

     29  H    Isotropic =    28.0468   Anisotropy =     6.2585

     30  H    Isotropic =    28.3991   Anisotropy =     8.0252

     31  H    Isotropic =    29.7119   Anisotropy =     5.9424

     32  C    Isotropic =   172.6508   Anisotropy =    27.0859

     33  H    Isotropic =    31.8700   Anisotropy =     8.1120

     34  H    Isotropic =    31.5679   Anisotropy =    11.1742

     35  H    Isotropic =    31.1540   Anisotropy =     8.1500

     36  H    Isotropic =    30.9424   Anisotropy =    10.6178

 The electronic state is 1-A.
 Alpha  occ. eigenvalues --  -24.80115 -24.79916 -19.17837 -14.39630 -10.33955
 Alpha  occ. eigenvalues --  -10.33841 -10.27739 -10.26729 -10.26713 -10.26301
 Alpha  occ. eigenvalues --  -10.26280 -10.25450 -10.25387 -10.23680 -10.22907
 Alpha  occ. eigenvalues --  -10.22264 -10.22151  -1.26990  -1.26843  -1.02596
 Alpha  occ. eigenvalues --   -0.94858  -0.90754  -0.83294  -0.80510  -0.78875
 Alpha  occ. eigenvalues --   -0.78115  -0.72433  -0.68763  -0.68249  -0.65922
 Alpha  occ. eigenvalues --   -0.64317  -0.61999  -0.58783  -0.58049  -0.55641
 Alpha  occ. eigenvalues --   -0.52404  -0.51836  -0.51585  -0.50970  -0.49773
 Alpha  occ. eigenvalues --   -0.49062  -0.48625  -0.46788  -0.46550  -0.45201
 Alpha  occ. eigenvalues --   -0.44179  -0.43674  -0.43052  -0.41783  -0.41751
 Alpha  occ. eigenvalues --   -0.41134  -0.39820  -0.39472  -0.38260  -0.38133
 Alpha  occ. eigenvalues --   -0.36988  -0.36690  -0.35969  -0.34929  -0.33418
 Alpha  occ. eigenvalues --   -0.32719  -0.27819  -0.27068  -0.26557  -0.24959
 Alpha virt. eigenvalues --   -0.02517  -0.00987   0.04764   0.05721   0.06190
 Alpha virt. eigenvalues --    0.07334   0.08303   0.10160   0.10244   0.10777
 Alpha virt. eigenvalues --    0.11329   0.11394   0.12492   0.12988   0.13190

 Mulliken charges:
               1
     1  C   -0.672857
     2  C   -0.461963
     3  C   -0.098597
     4  C   -0.312084
     5  C   -0.170143
     6  O   -0.612705
     7  N   -0.623173
     8  C   -0.360048
     9  C   -0.206297
    10  C   -0.270953
    11  C    0.328019
    12  C   -0.156261
    13  C    0.346044
    14  C   -0.265236
    15  H    0.235670
    16  H    0.238865
    17  H    0.240209
    18  F   -0.250555
    19  F   -0.242692
    20  H    0.217148
    21  H    0.233995
    22  H    0.232958
    23  H    0.238550
    24  H    0.234758
    25  H    0.220644
    26  H    0.186784
    27  H    0.210903
    28  H    0.412667
    29  H    0.249835
    30  H    0.256951
    31  H    0.250539
    32  C   -0.674477
    33  H    0.225845
    34  H    0.232310
    35  H    0.240192
    36  H    0.345154
 Sum of Mulliken charges =   0.00000

 Dipole moment (field-independent basis, Debye):
    X=              0.9672    Y=             -3.6855    Z=              0.7490  Tot=              3.8832
 Quadrupole moment (field-independent basis, Debye-Ang):
   XX=            -89.1782   YY=           -116.0872   ZZ=            -96.1115
   XY=              5.3174   XZ=              5.5399   YZ=              3.5776

 Normal termination of Gaussian 09 at Wed Mar  6 11:35:10 2019.
