 Gaussian 09, Revision D.01,
 Gaussian 09:  EM64L-G09RevD.01 24-Apr-2013

 ----------------------------------------------------------------------
 # mPW1PW91/6-311g(d) geom=checkpoint nmr=giao scrf=(solvent=chloroform
 )
 ----------------------------------------------------------------------

 ------------
 AT3_2ginp002
 ------------
 Structure from the checkpoint file:  "AT3_2ginp002.chk"
 Charge =  0 Multiplicity = 1

                         Standard orientation:
 ---------------------------------------------------------------------
 Center     Atomic      Atomic             Coordinates (Angstroms)
 Number     Number       Type             X           Y           Z
 ---------------------------------------------------------------------
      1          6           0        2.417837    2.930629    0.167177
      2          6           0        2.812456    1.480444    0.478662
      3          6           0        2.076616    0.438167   -0.383476
      4          6           0        2.724816   -0.974114   -0.368249
      5          6           0        2.803339   -1.582729    1.043249
      6          8           0        1.531670   -1.777832    1.642687
      7          7           0        0.667206    0.346491    0.081400
      8          6           0       -0.289837   -0.037452   -0.971266
      9          6           0       -4.364267    0.016730    0.514586
     10          6           0       -3.647427    1.210280    0.404493
     11          6           0       -2.347307    1.149257   -0.075184
     12          6           0       -1.708545   -0.033264   -0.453894
     13          6           0       -2.473050   -1.193537   -0.318199
     14          6           0       -3.781543   -1.197607    0.152739
     15          1           0       -5.383291    0.034453    0.886268
     16          1           0       -4.075191    2.166934    0.680575
     17          1           0       -4.317575   -2.136333    0.229882
     18          9           0       -1.635151    2.302552   -0.180035
     19          9           0       -1.914290   -2.372569   -0.672468
     20          1           0        2.958459    3.627190    0.815130
     21          1           0        2.654287    3.186576   -0.871387
     22          1           0        1.348283    3.118280    0.315048
     23          1           0        3.891070    1.371980    0.328366
     24          1           0        2.624289    1.263255    1.537488
     25          1           0        2.063902   -1.629528   -0.952064
     26          1           0        3.451756   -0.952016    1.676970
     27          1           0        3.293778   -2.563169    0.980819
     28          1           0        0.986780   -1.021691    1.330267
     29          1           0       -0.219636    0.636024   -1.841280
     30          1           0       -0.047151   -1.042107   -1.320807
     31          1           0        2.101921    0.795699   -1.429465
     32          6           0        4.100258   -0.988375   -1.049924
     33          1           0        4.856066   -0.453678   -0.464618
     34          1           0        4.454723   -2.015949   -1.178530
     35          1           0        4.057914   -0.524265   -2.041151
     36          1           0        0.380702    1.255142    0.435449
 ---------------------------------------------------------------------

 SCF Done:  E(RmPW1PW91) =  -836.468743721     A.U. after   12 cycles

      1  C    Isotropic =   175.2711   Anisotropy =    22.9198

      2  C    Isotropic =   164.8932   Anisotropy =    15.4210

      3  C    Isotropic =   118.4638   Anisotropy =    21.2044

      4  C    Isotropic =   150.8466   Anisotropy =    19.9695

      5  C    Isotropic =   119.4410   Anisotropy =    68.1762

      6  O    Isotropic =   303.0892   Anisotropy =    71.9376

      7  N    Isotropic =   199.9737   Anisotropy =    52.2917

      8  C    Isotropic =   146.0266   Anisotropy =    49.2159

      9  C    Isotropic =    53.5280   Anisotropy =   189.1744

     10  C    Isotropic =    72.5568   Anisotropy =   146.1425

     11  C    Isotropic =    17.0318   Anisotropy =    94.7366

     12  C    Isotropic =    67.3650   Anisotropy =   135.7786

     13  C    Isotropic =    19.7152   Anisotropy =    97.2921

     14  C    Isotropic =    71.7014   Anisotropy =   147.5169

     15  H    Isotropic =    24.6033   Anisotropy =     3.1391

     16  H    Isotropic =    25.1169   Anisotropy =     5.2258

     17  H    Isotropic =    25.0970   Anisotropy =     4.9337

     18  F    Isotropic =   299.6805   Anisotropy =   117.0809

     19  F    Isotropic =   294.2568   Anisotropy =   120.6481

     20  H    Isotropic =    30.8754   Anisotropy =    11.4110

     21  H    Isotropic =    31.2496   Anisotropy =     9.1752

     22  H    Isotropic =    31.0178   Anisotropy =     7.6664

     23  H    Isotropic =    30.5267   Anisotropy =     7.5740

     24  H    Isotropic =    30.6572   Anisotropy =     5.8794

     25  H    Isotropic =    29.6989   Anisotropy =     5.0255

     26  H    Isotropic =    28.2974   Anisotropy =     4.2400

     27  H    Isotropic =    28.5943   Anisotropy =     7.0970

     28  H    Isotropic =    27.2724   Anisotropy =    25.0765

     29  H    Isotropic =    28.5506   Anisotropy =     5.8655

     30  H    Isotropic =    27.9893   Anisotropy =     7.1027

     31  H    Isotropic =    29.3402   Anisotropy =     2.9830

     32  C    Isotropic =   173.1522   Anisotropy =    28.6454

     33  H    Isotropic =    31.4838   Anisotropy =     7.8308

     34  H    Isotropic =    31.2325   Anisotropy =    10.8853

     35  H    Isotropic =    31.4092   Anisotropy =     9.3240

     36  H    Isotropic =    30.6241   Anisotropy =    11.0833

 The electronic state is 1-A.
 Alpha  occ. eigenvalues --  -24.80552 -24.79982 -19.17825 -14.39716 -10.34063
 Alpha  occ. eigenvalues --  -10.34038 -10.27711 -10.26975 -10.26973 -10.26369
 Alpha  occ. eigenvalues --  -10.26313 -10.25610 -10.25509 -10.23711 -10.23433
 Alpha  occ. eigenvalues --  -10.22500 -10.22236  -1.27313  -1.26980  -1.02530
 Alpha  occ. eigenvalues --   -0.95162  -0.90956  -0.83560  -0.80542  -0.79039
 Alpha  occ. eigenvalues --   -0.78632  -0.72149  -0.68796  -0.67956  -0.66115
 Alpha  occ. eigenvalues --   -0.64437  -0.63237  -0.58929  -0.57709  -0.55896
 Alpha  occ. eigenvalues --   -0.52719  -0.51766  -0.51503  -0.50903  -0.49932
 Alpha  occ. eigenvalues --   -0.49361  -0.49138  -0.47056  -0.46783  -0.45679
 Alpha  occ. eigenvalues --   -0.44279  -0.43229  -0.42703  -0.42586  -0.41803
 Alpha  occ. eigenvalues --   -0.40632  -0.40270  -0.39522  -0.39173  -0.38264
 Alpha  occ. eigenvalues --   -0.37858  -0.37186  -0.35503  -0.34588  -0.33266
 Alpha  occ. eigenvalues --   -0.32651  -0.27930  -0.27223  -0.26471  -0.25512
 Alpha virt. eigenvalues --   -0.02539  -0.01132   0.04807   0.05750   0.06393
 Alpha virt. eigenvalues --    0.07087   0.08266   0.10058   0.10327   0.10447
 Alpha virt. eigenvalues --    0.11178   0.11600   0.12477   0.12680   0.13206

 Mulliken charges:
               1
     1  C   -0.659708
     2  C   -0.490201
     3  C   -0.093750
     4  C   -0.315505
     5  C   -0.161717
     6  O   -0.619147
     7  N   -0.620079
     8  C   -0.349690
     9  C   -0.208535
    10  C   -0.260473
    11  C    0.326525
    12  C   -0.134014
    13  C    0.311924
    14  C   -0.266280
    15  H    0.236306
    16  H    0.240408
    17  H    0.240386
    18  F   -0.252969
    19  F   -0.243387
    20  H    0.234233
    21  H    0.228164
    22  H    0.221088
    23  H    0.244956
    24  H    0.239304
    25  H    0.231791
    26  H    0.194177
    27  H    0.210724
    28  H    0.409228
    29  H    0.238185
    30  H    0.265212
    31  H    0.220552
    32  C   -0.663609
    33  H    0.226425
    34  H    0.234720
    35  H    0.230366
    36  H    0.354391
 Sum of Mulliken charges =   0.00000

 Dipole moment (field-independent basis, Debye):
    X=             -1.3624    Y=              3.1477    Z=             -2.0951  Tot=              4.0192
 Quadrupole moment (field-independent basis, Debye-Ang):
   XX=            -81.6722   YY=           -107.0147   ZZ=           -107.1141
   XY=              2.9900   XZ=             -7.2814   YZ=              6.3984

 Normal termination of Gaussian 09 at Wed Mar  6 12:26:04 2019.
