 Gaussian 09, Revision D.01,
 Gaussian 09:  EM64L-G09RevD.01 24-Apr-2013

 ----------------------------------------------------------------------
 # mPW1PW91/6-311g(d) geom=checkpoint nmr=giao scrf=(solvent=chloroform
 )
 ----------------------------------------------------------------------

 ------------
 AT3_2ginp011
 ------------
 Structure from the checkpoint file:  "AT3_2ginp011.chk"
 Charge =  0 Multiplicity = 1

                         Standard orientation:
 ---------------------------------------------------------------------
 Center     Atomic      Atomic             Coordinates (Angstroms)
 Number     Number       Type             X           Y           Z
 ---------------------------------------------------------------------
      1          6           0       -3.567296   -2.253910   -1.294969
      2          6           0       -2.267393   -1.938560   -0.545352
      3          6           0       -1.899397   -0.438154   -0.477150
      4          6           0       -2.901739    0.411339    0.346841
      5          6           0       -2.700514    1.904873    0.038842
      6          8           0       -3.666496    2.748887    0.669478
      7          7           0       -0.526763   -0.199292    0.014952
      8          6           0        0.531206   -0.485012   -0.962701
      9          6           0        4.445009    0.364028    0.710556
     10          6           0        3.726588   -0.750502    1.148185
     11          6           0        2.479413   -0.986913    0.586938
     12          6           0        1.896702   -0.178619   -0.390779
     13          6           0        2.658422    0.923107   -0.783058
     14          6           0        3.915101    1.212061   -0.262008
     15          1           0        5.422975    0.572662    1.131341
     16          1           0        4.112761   -1.424111    1.904322
     17          1           0        4.452851    2.083284   -0.617707
     18          9           0        1.767130   -2.062330    1.011713
     19          9           0        2.151658    1.747660   -1.728847
     20          1           0       -3.718205   -3.335443   -1.372548
     21          1           0       -4.445843   -1.836790   -0.793287
     22          1           0       -3.543432   -1.849255   -2.313365
     23          1           0       -2.319007   -2.346158    0.472902
     24          1           0       -1.444063   -2.468338   -1.039667
     25          1           0       -3.912878    0.156857    0.004203
     26          1           0       -2.820314    2.071802   -1.037776
     27          1           0       -1.677785    2.200846    0.306389
     28          1           0       -3.414301    2.838132    1.597151
     29          1           0        0.532617   -1.528439   -1.319104
     30          1           0        0.366892    0.149847   -1.836808
     31          1           0       -1.924000   -0.050077   -1.506495
     32          6           0       -2.831758    0.141080    1.856947
     33          1           0       -3.009794   -0.911869    2.096091
     34          1           0       -1.853909    0.421903    2.263998
     35          1           0       -3.596024    0.720576    2.383937
     36          1           0       -0.364384   -0.778358    0.836377
 ---------------------------------------------------------------------

 SCF Done:  E(RmPW1PW91) =  -836.460955291     A.U. after   12 cycles

      1  C    Isotropic =   175.4148   Anisotropy =    22.3542

      2  C    Isotropic =   163.3506   Anisotropy =    22.3585

      3  C    Isotropic =   123.6359   Anisotropy =    30.8830

      4  C    Isotropic =   148.7746   Anisotropy =    20.8612

      5  C    Isotropic =   116.9806   Anisotropy =    57.1800

      6  O    Isotropic =   310.9227   Anisotropy =    44.3383

      7  N    Isotropic =   204.9065   Anisotropy =    53.0076

      8  C    Isotropic =   145.6216   Anisotropy =    50.3092

      9  C    Isotropic =    54.2031   Anisotropy =   188.2426

     10  C    Isotropic =    72.7593   Anisotropy =   145.9090

     11  C    Isotropic =    17.4563   Anisotropy =    95.1893

     12  C    Isotropic =    65.2495   Anisotropy =   138.2568

     13  C    Isotropic =    19.0933   Anisotropy =    97.7657

     14  C    Isotropic =    72.0327   Anisotropy =   146.8907

     15  H    Isotropic =    24.6323   Anisotropy =     3.1539

     16  H    Isotropic =    25.1708   Anisotropy =     5.1115

     17  H    Isotropic =    25.1289   Anisotropy =     4.7807

     18  F    Isotropic =   299.2700   Anisotropy =   114.1391

     19  F    Isotropic =   295.7088   Anisotropy =   117.6520

     20  H    Isotropic =    30.9498   Anisotropy =    11.2560

     21  H    Isotropic =    31.0338   Anisotropy =     7.6534

     22  H    Isotropic =    31.3503   Anisotropy =     9.2982

     23  H    Isotropic =    30.7616   Anisotropy =     5.2135

     24  H    Isotropic =    30.0755   Anisotropy =     6.3783

     25  H    Isotropic =    30.2020   Anisotropy =     6.3899

     26  H    Isotropic =    28.5174   Anisotropy =     4.8719

     27  H    Isotropic =    28.2880   Anisotropy =     7.8564

     28  H    Isotropic =    31.6688   Anisotropy =    15.4924

     29  H    Isotropic =    28.0894   Anisotropy =     5.2611

     30  H    Isotropic =    28.7344   Anisotropy =     8.2553

     31  H    Isotropic =    29.8032   Anisotropy =     2.1784

     32  C    Isotropic =   180.0950   Anisotropy =    17.7684

     33  H    Isotropic =    31.2576   Anisotropy =     8.3362

     34  H    Isotropic =    31.7673   Anisotropy =     7.1857

     35  H    Isotropic =    31.2685   Anisotropy =     9.6855

     36  H    Isotropic =    31.9386   Anisotropy =    10.2492

 The electronic state is 1-A.
 Alpha  occ. eigenvalues --  -24.80150 -24.79796 -19.20448 -14.37930 -10.33784
 Alpha  occ. eigenvalues --  -10.33761 -10.27057 -10.26612 -10.26603 -10.26278
 Alpha  occ. eigenvalues --  -10.26182 -10.25412 -10.25347 -10.23220 -10.22787
 Alpha  occ. eigenvalues --  -10.21977 -10.21901  -1.26967  -1.26767  -1.04413
 Alpha  occ. eigenvalues --   -0.94155  -0.90655  -0.83137  -0.79933  -0.78809
 Alpha  occ. eigenvalues --   -0.78078  -0.71634  -0.70238  -0.67253  -0.65857
 Alpha  occ. eigenvalues --   -0.63905  -0.62261  -0.58740  -0.57730  -0.55232
 Alpha  occ. eigenvalues --   -0.52662  -0.52299  -0.51518  -0.50922  -0.49497
 Alpha  occ. eigenvalues --   -0.49012  -0.47906  -0.47342  -0.46617  -0.45238
 Alpha  occ. eigenvalues --   -0.45156  -0.43138  -0.42432  -0.42316  -0.41288
 Alpha  occ. eigenvalues --   -0.40269  -0.39541  -0.38676  -0.38449  -0.37842
 Alpha  occ. eigenvalues --   -0.37571  -0.36533  -0.35489  -0.35239  -0.33193
 Alpha  occ. eigenvalues --   -0.32517  -0.28296  -0.27602  -0.27018  -0.23881
 Alpha virt. eigenvalues --   -0.02226  -0.00929   0.04862   0.05518   0.06254
 Alpha virt. eigenvalues --    0.07410   0.07561   0.08864   0.10349   0.10980
 Alpha virt. eigenvalues --    0.11173   0.11590   0.12262   0.13080   0.13308

 Mulliken charges:
               1
     1  C   -0.666112
     2  C   -0.443884
     3  C   -0.147563
     4  C   -0.242819
     5  C   -0.201563
     6  O   -0.600491
     7  N   -0.546260
     8  C   -0.348344
     9  C   -0.210250
    10  C   -0.263534
    11  C    0.331118
    12  C   -0.141123
    13  C    0.309398
    14  C   -0.270123
    15  H    0.234613
    16  H    0.238453
    17  H    0.238285
    18  F   -0.252804
    19  F   -0.246810
    20  H    0.228456
    21  H    0.231224
    22  H    0.223494
    23  H    0.219254
    24  H    0.232435
    25  H    0.229702
    26  H    0.218355
    27  H    0.217308
    28  H    0.405504
    29  H    0.226527
    30  H    0.252479
    31  H    0.229904
    32  C   -0.709633
    33  H    0.237596
    34  H    0.230263
    35  H    0.225831
    36  H    0.331115
 Sum of Mulliken charges =   0.00000

 Dipole moment (field-independent basis, Debye):
    X=              2.7953    Y=             -1.9229    Z=              1.2863  Tot=              3.6285
 Quadrupole moment (field-independent basis, Debye-Ang):
   XX=            -97.5634   YY=           -107.7934   ZZ=            -97.6261
   XY=             10.1023   XZ=              2.4252   YZ=              3.2805

 Normal termination of Gaussian 09 at Wed Mar  6 12:23:20 2019.
