 Gaussian 09, Revision D.01,
 Gaussian 09:  EM64L-G09RevD.01 24-Apr-2013

 ----------------------------------------------------------------------
 # mPW1PW91/6-311g(d) geom=checkpoint nmr=giao scrf=(solvent=chloroform
 )
 ----------------------------------------------------------------------

 ------------
 AT3_2ginp008
 ------------
 Structure from the checkpoint file:  "AT3_2ginp008.chk"
 Charge =  0 Multiplicity = 1

                         Standard orientation:
 ---------------------------------------------------------------------
 Center     Atomic      Atomic             Coordinates (Angstroms)
 Number     Number       Type             X           Y           Z
 ---------------------------------------------------------------------
      1          6           0       -2.052027    3.195727   -0.207210
      2          6           0       -2.553547    1.779551   -0.519431
      3          6           0       -1.894874    0.683262    0.340024
      4          6           0       -2.672649   -0.660661    0.348941
      5          6           0       -2.915637   -1.201740   -1.060853
      6          8           0       -3.362227   -2.555925   -0.944715
      7          7           0       -0.512839    0.466164   -0.129315
      8          6           0        0.411094    0.028955    0.925332
      9          6           0        4.465061   -0.314317   -0.586594
     10          6           0        3.865270    0.941985   -0.476791
     11          6           0        2.567801    1.006921    0.010857
     12          6           0        1.821313   -0.107080    0.399922
     13          6           0        2.471441   -1.334583    0.262377
     14          6           0        3.770679   -1.465858   -0.216516
     15          1           0        5.478883   -0.395069   -0.964222
     16          1           0        4.380149    1.852822   -0.759350
     17          1           0        4.213782   -2.452042   -0.292767
     18          9           0        1.971323    2.224163    0.113434
     19          9           0        1.806214   -2.455834    0.623696
     20          1           0       -2.531259    3.932523   -0.859392
     21          1           0       -2.276475    3.470186    0.829396
     22          1           0       -0.969563    3.297701   -0.344853
     23          1           0       -3.637946    1.752137   -0.370598
     24          1           0       -2.380001    1.549792   -1.578596
     25          1           0       -2.023559   -1.397699    0.841402
     26          1           0       -1.980466   -1.141912   -1.633244
     27          1           0       -3.671761   -0.590937   -1.578821
     28          1           0       -3.528609   -2.884651   -1.837568
     29          1           0        0.418480    0.721446    1.786242
     30          1           0        0.086525   -0.942157    1.304034
     31          1           0       -1.890198    1.047883    1.385680
     32          6           0       -3.971830   -0.583255    1.162310
     33          1           0       -4.682596    0.129704    0.729126
     34          1           0       -4.459997   -1.560502    1.186354
     35          1           0       -3.774919   -0.273327    2.194363
     36          1           0       -0.153180    1.339961   -0.502632
 ---------------------------------------------------------------------

 SCF Done:  E(RmPW1PW91) =  -836.460548492     A.U. after   12 cycles

      1  C    Isotropic =   174.5237   Anisotropy =    24.3954

      2  C    Isotropic =   163.4178   Anisotropy =    15.9886

      3  C    Isotropic =   120.0537   Anisotropy =    22.5217

      4  C    Isotropic =   148.3894   Anisotropy =    22.0503

      5  C    Isotropic =   121.5648   Anisotropy =    55.8520

      6  O    Isotropic =   311.5617   Anisotropy =   100.0868

      7  N    Isotropic =   205.8475   Anisotropy =    57.7553

      8  C    Isotropic =   145.0217   Anisotropy =    50.5966

      9  C    Isotropic =    54.2387   Anisotropy =   187.8506

     10  C    Isotropic =    72.6588   Anisotropy =   145.7239

     11  C    Isotropic =    16.7990   Anisotropy =    94.8934

     12  C    Isotropic =    65.9074   Anisotropy =   137.5863

     13  C    Isotropic =    19.5649   Anisotropy =    96.7376

     14  C    Isotropic =    71.9551   Anisotropy =   146.8407

     15  H    Isotropic =    24.6291   Anisotropy =     3.1141

     16  H    Isotropic =    25.1209   Anisotropy =     5.1833

     17  H    Isotropic =    25.0967   Anisotropy =     4.8919

     18  F    Isotropic =   299.5336   Anisotropy =   116.4223

     19  F    Isotropic =   294.3884   Anisotropy =   118.1237

     20  H    Isotropic =    31.0061   Anisotropy =    11.3673

     21  H    Isotropic =    31.2903   Anisotropy =     8.9978

     22  H    Isotropic =    31.0627   Anisotropy =     7.6472

     23  H    Isotropic =    30.6034   Anisotropy =     6.9554

     24  H    Isotropic =    31.2313   Anisotropy =     5.8046

     25  H    Isotropic =    29.9197   Anisotropy =     5.9989

     26  H    Isotropic =    27.9672   Anisotropy =     5.9969

     27  H    Isotropic =    28.7914   Anisotropy =     5.3066

     28  H    Isotropic =    31.6668   Anisotropy =    20.2567

     29  H    Isotropic =    28.4326   Anisotropy =     5.9369

     30  H    Isotropic =    28.1100   Anisotropy =     7.4250

     31  H    Isotropic =    29.4955   Anisotropy =     2.6365

     32  C    Isotropic =   172.7478   Anisotropy =    26.7817

     33  H    Isotropic =    31.4021   Anisotropy =     7.9648

     34  H    Isotropic =    30.4754   Anisotropy =     9.4242

     35  H    Isotropic =    31.3738   Anisotropy =     9.3714

     36  H    Isotropic =    31.1238   Anisotropy =    11.5089

 The electronic state is 1-A.
 Alpha  occ. eigenvalues --  -24.80236 -24.79754 -19.20206 -14.37859 -10.33777
 Alpha  occ. eigenvalues --  -10.33771 -10.26930 -10.26627 -10.26504 -10.26193
 Alpha  occ. eigenvalues --  -10.26170 -10.25411 -10.25330 -10.23117 -10.23057
 Alpha  occ. eigenvalues --  -10.22206 -10.21323  -1.27005  -1.26735  -1.04176
 Alpha  occ. eigenvalues --   -0.94211  -0.90659  -0.83133  -0.80072  -0.78806
 Alpha  occ. eigenvalues --   -0.78266  -0.71538  -0.69311  -0.67453  -0.65851
 Alpha  occ. eigenvalues --   -0.63940  -0.62550  -0.58648  -0.56160  -0.55450
 Alpha  occ. eigenvalues --   -0.52816  -0.52286  -0.51515  -0.50803  -0.49625
 Alpha  occ. eigenvalues --   -0.48984  -0.48725  -0.46987  -0.46575  -0.45732
 Alpha  occ. eigenvalues --   -0.44170  -0.43807  -0.42562  -0.42283  -0.41517
 Alpha  occ. eigenvalues --   -0.40269  -0.39247  -0.38936  -0.38015  -0.37882
 Alpha  occ. eigenvalues --   -0.37505  -0.36450  -0.35269  -0.34231  -0.33448
 Alpha  occ. eigenvalues --   -0.31669  -0.28050  -0.27617  -0.27013  -0.24262
 Alpha virt. eigenvalues --   -0.02235  -0.00923   0.05109   0.05827   0.06205
 Alpha virt. eigenvalues --    0.07154   0.07744   0.09125   0.10220   0.10783
 Alpha virt. eigenvalues --    0.10944   0.11628   0.12916   0.13061   0.13402

 Mulliken charges:
               1
     1  C   -0.658506
     2  C   -0.498654
     3  C   -0.097902
     4  C   -0.271912
     5  C   -0.175943
     6  O   -0.616538
     7  N   -0.547507
     8  C   -0.357346
     9  C   -0.210218
    10  C   -0.263026
    11  C    0.322993
    12  C   -0.131288
    13  C    0.309100
    14  C   -0.268755
    15  H    0.234645
    16  H    0.238779
    17  H    0.238406
    18  F   -0.253319
    19  F   -0.245370
    20  H    0.230747
    21  H    0.226955
    22  H    0.219677
    23  H    0.239947
    24  H    0.233228
    25  H    0.229144
    26  H    0.216851
    27  H    0.198939
    28  H    0.409599
    29  H    0.223017
    30  H    0.258639
    31  H    0.210853
    32  C   -0.657702
    33  H    0.217178
    34  H    0.238905
    35  H    0.223291
    36  H    0.333095
 Sum of Mulliken charges =   0.00000

 Dipole moment (field-independent basis, Debye):
    X=              1.7370    Y=              1.7378    Z=             -1.5491  Tot=              2.9046
 Quadrupole moment (field-independent basis, Debye-Ang):
   XX=            -87.7158   YY=           -104.9710   ZZ=            -97.9653
   XY=             -4.9936   XZ=              1.5248   YZ=              3.5931

 Normal termination of Gaussian 09 at Wed Mar  6 18:53:41 2019.
