 Gaussian 09, Revision D.01,
 Gaussian 09:  EM64L-G09RevD.01 24-Apr-2013

 ----------------------------------------------------------------------
 # mPW1PW91/6-311g(d) geom=checkpoint nmr=giao scrf=(solvent=chloroform
 )
 ----------------------------------------------------------------------

 ------------
 AT3_2ginp001
 ------------
 Structure from the checkpoint file:  "AT3_2ginp001.chk"
 Charge =  0 Multiplicity = 1

                         Standard orientation:
 ---------------------------------------------------------------------
 Center     Atomic      Atomic             Coordinates (Angstroms)
 Number     Number       Type             X           Y           Z
 ---------------------------------------------------------------------
      1          6           0       -3.960526   -1.851427   -1.174925
      2          6           0       -2.574754   -1.673818   -0.543280
      3          6           0       -2.079347   -0.213701   -0.469293
      4          6           0       -2.984172    0.729608    0.368022
      5          6           0       -2.529983    2.196477    0.223987
      6          8           0       -1.287022    2.469685    0.852853
      7          7           0       -0.673398   -0.105640    0.003973
      8          6           0        0.345158   -0.535920   -0.970954
      9          6           0        4.331003    0.074274    0.620830
     10          6           0        3.799227    1.002193   -0.275289
     11          6           0        2.518467    0.786865   -0.770792
     12          6           0        1.736813   -0.317811   -0.427575
     13          6           0        2.319998   -1.206639    0.477059
     14          6           0        3.592079   -1.045021    1.008919
     15          1           0        5.327790    0.225053    1.021603
     16          1           0        4.353215    1.879290   -0.588897
     17          1           0        3.980665   -1.777574    1.706670
     18          9           0        2.002214    1.686553   -1.638409
     19          9           0        1.585473   -2.282797    0.854717
     20          1           0       -4.199741   -2.913401   -1.288840
     21          1           0       -4.751186   -1.401332   -0.567076
     22          1           0       -4.003828   -1.393983   -2.169975
     23          1           0       -2.568114   -2.111156    0.463427
     24          1           0       -1.849850   -2.252588   -1.127643
     25          1           0       -3.986138    0.678297   -0.078720
     26          1           0       -3.276752    2.853729    0.686995
     27          1           0       -2.499114    2.453951   -0.850010
     28          1           0       -0.720421    1.712451    0.587031
     29          1           0        0.241955   -1.590939   -1.260815
     30          1           0        0.217817    0.065412   -1.874048
     31          1           0       -2.076110    0.187917   -1.492998
     32          6           0       -3.098672    0.332487    1.847974
     33          1           0       -2.134909    0.417705    2.358395
     34          1           0       -3.795146    1.001615    2.364053
     35          1           0       -3.468831   -0.689154    1.975217
     36          1           0       -0.562273   -0.662498    0.850128
 ---------------------------------------------------------------------

 SCF Done:  E(RmPW1PW91) =  -836.469446635     A.U. after   12 cycles

      1  C    Isotropic =   175.9657   Anisotropy =    20.5703

      2  C    Isotropic =   162.7008   Anisotropy =    21.7160

      3  C    Isotropic =   118.6512   Anisotropy =    24.1668

      4  C    Isotropic =   150.6268   Anisotropy =     4.7219

      5  C    Isotropic =   115.0944   Anisotropy =    38.3610

      6  O    Isotropic =   308.5060   Anisotropy =    93.9810

      7  N    Isotropic =   196.0233   Anisotropy =    46.9634

      8  C    Isotropic =   146.8276   Anisotropy =    50.2957

      9  C    Isotropic =    53.4106   Anisotropy =   189.4982

     10  C    Isotropic =    71.9190   Anisotropy =   147.3578

     11  C    Isotropic =    18.7015   Anisotropy =    98.6191

     12  C    Isotropic =    66.5292   Anisotropy =   137.1747

     13  C    Isotropic =    17.9010   Anisotropy =    96.1681

     14  C    Isotropic =    72.7457   Anisotropy =   146.3459

     15  H    Isotropic =    24.6080   Anisotropy =     3.1559

     16  H    Isotropic =    25.1303   Anisotropy =     4.9148

     17  H    Isotropic =    25.1561   Anisotropy =     5.0401

     18  F    Isotropic =   294.9692   Anisotropy =   121.9067

     19  F    Isotropic =   300.0176   Anisotropy =   116.9964

     20  H    Isotropic =    30.9843   Anisotropy =    11.2866

     21  H    Isotropic =    31.1546   Anisotropy =     7.7078

     22  H    Isotropic =    31.4018   Anisotropy =     9.2958

     23  H    Isotropic =    30.7964   Anisotropy =     4.8649

     24  H    Isotropic =    30.0178   Anisotropy =     6.2874

     25  H    Isotropic =    30.5231   Anisotropy =     7.0635

     26  H    Isotropic =    28.4014   Anisotropy =     8.2043

     27  H    Isotropic =    27.9601   Anisotropy =     6.2372

     28  H    Isotropic =    28.1176   Anisotropy =    25.4038

     29  H    Isotropic =    28.0584   Anisotropy =     5.3422

     30  H    Isotropic =    28.5965   Anisotropy =     7.2642

     31  H    Isotropic =    29.1948   Anisotropy =     2.0552

     32  C    Isotropic =   178.9391   Anisotropy =    16.0636

     33  H    Isotropic =    31.0007   Anisotropy =     5.6991

     34  H    Isotropic =    31.3534   Anisotropy =    11.6094

     35  H    Isotropic =    31.2606   Anisotropy =     7.7343

     36  H    Isotropic =    31.5176   Anisotropy =     8.1160

 The electronic state is 1-A.
 Alpha  occ. eigenvalues --  -24.80273 -24.79966 -19.17988 -14.39686 -10.33962
 Alpha  occ. eigenvalues --  -10.33957 -10.27689 -10.26872 -10.26812 -10.26347
 Alpha  occ. eigenvalues --  -10.26318 -10.25520 -10.25447 -10.23639 -10.23154
 Alpha  occ. eigenvalues --  -10.22259 -10.21704  -1.27133  -1.26942  -1.02679
 Alpha  occ. eigenvalues --   -0.94947  -0.90849  -0.83403  -0.80265  -0.78953
 Alpha  occ. eigenvalues --   -0.78164  -0.72145  -0.69622  -0.67504  -0.66042
 Alpha  occ. eigenvalues --   -0.64252  -0.62827  -0.58938  -0.57727  -0.55578
 Alpha  occ. eigenvalues --   -0.52490  -0.51681  -0.51328  -0.50710  -0.49497
 Alpha  occ. eigenvalues --   -0.49152  -0.48491  -0.47596  -0.46737  -0.46455
 Alpha  occ. eigenvalues --   -0.44079  -0.43369  -0.42937  -0.41721  -0.41372
 Alpha  occ. eigenvalues --   -0.40861  -0.39995  -0.38753  -0.38204  -0.38038
 Alpha  occ. eigenvalues --   -0.37875  -0.37149  -0.36581  -0.34234  -0.33162
 Alpha  occ. eigenvalues --   -0.32905  -0.27845  -0.27136  -0.26658  -0.25110
 Alpha virt. eigenvalues --   -0.02478  -0.01045   0.04839   0.05607   0.06580
 Alpha virt. eigenvalues --    0.07241   0.07453   0.09982   0.10525   0.11046
 Alpha virt. eigenvalues --    0.11347   0.11737   0.12279   0.13024   0.13329

 Mulliken charges:
               1
     1  C   -0.669445
     2  C   -0.446675
     3  C   -0.115129
     4  C   -0.314971
     5  C   -0.181921
     6  O   -0.611425
     7  N   -0.610892
     8  C   -0.341773
     9  C   -0.207836
    10  C   -0.268074
    11  C    0.322536
    12  C   -0.154300
    13  C    0.335481
    14  C   -0.263697
    15  H    0.235962
    16  H    0.239960
    17  H    0.239463
    18  F   -0.245858
    19  F   -0.251194
    20  H    0.230844
    21  H    0.232545
    22  H    0.225633
    23  H    0.223897
    24  H    0.234508
    25  H    0.235061
    26  H    0.214223
    27  H    0.195006
    28  H    0.408617
    29  H    0.240016
    30  H    0.257177
    31  H    0.237402
    32  C   -0.662296
    33  H    0.227788
    34  H    0.230780
    35  H    0.231828
    36  H    0.346761
 Sum of Mulliken charges =   0.00000

 Dipole moment (field-independent basis, Debye):
    X=              1.0224    Y=             -3.4801    Z=             -0.9589  Tot=              3.7518
 Quadrupole moment (field-independent basis, Debye-Ang):
   XX=            -82.3364   YY=           -112.5339   ZZ=           -102.7432
   XY=              3.9365   XZ=              6.2436   YZ=             -3.7135

 Normal termination of Gaussian 09 at Wed Mar  6 12:19:40 2019.
