 Gaussian 09, Revision D.01,
 Gaussian 09:  EM64L-G09RevD.01 24-Apr-2013

 ----------------------------------------------------------------------
 # mPW1PW91/6-311g(d) geom=checkpoint nmr=giao scrf=(solvent=chloroform
 )
 ----------------------------------------------------------------------

 ------------
 AT3_1ginp003
 ------------
 Structure from the checkpoint file:  "AT3_1ginp003.chk"
 Charge =  0 Multiplicity = 1

                         Standard orientation:
 ---------------------------------------------------------------------
 Center     Atomic      Atomic             Coordinates (Angstroms)
 Number     Number       Type             X           Y           Z
 ---------------------------------------------------------------------
      1          6           0       -2.252625    3.043578   -0.296331
      2          6           0       -2.831873    1.717406    0.212942
      3          6           0       -2.191817    0.473935   -0.432347
      4          6           0       -3.012394   -0.822801   -0.190735
      5          6           0       -3.007102   -1.261731    1.287376
      6          8           0       -1.732585   -1.710411    1.728097
      7          7           0       -0.788815    0.318892    0.053645
      8          6           0        0.210609    0.128417   -1.014299
      9          6           0        4.207932   -0.092809    0.643926
     10          6           0        3.597422   -1.253619    0.168286
     11          6           0        2.313367   -1.160836   -0.356836
     12          6           0        1.603910    0.038061   -0.443073
     13          6           0        2.264105    1.162225    0.055607
     14          6           0        3.542703    1.134203    0.593630
     15          1           0        5.208593   -0.144004    1.059774
     16          1           0        4.093398   -2.216665    0.200588
     17          1           0        3.993085    2.048830    0.961065
     18          9           0        1.720839   -2.286208   -0.817020
     19          9           0        1.597640    2.346042    0.013307
     20          1           0       -2.425770    3.159194   -1.371876
     21          1           0       -2.719198    3.893329    0.211204
     22          1           0       -1.172370    3.116977   -0.127867
     23          1           0       -2.720040    1.659477    1.303548
     24          1           0       -3.909858    1.696731    0.015946
     25          1           0       -4.053494   -0.579765   -0.447943
     26          1           0       -3.708296   -2.096038    1.416651
     27          1           0       -3.379090   -0.438839    1.920682
     28          1           0       -1.102974   -1.073687    1.323853
     29          1           0       -0.015421   -0.795371   -1.547000
     30          1           0        0.174404    0.946878   -1.750207
     31          1           0       -2.174665    0.649451   -1.520783
     32          6           0       -2.560324   -1.978214   -1.096471
     33          1           0       -1.565185   -2.332760   -0.815313
     34          1           0       -3.244967   -2.828348   -1.004232
     35          1           0       -2.539776   -1.677413   -2.149673
     36          1           0       -0.525770    1.157686    0.564649
 ---------------------------------------------------------------------

 SCF Done:  E(RmPW1PW91) =  -836.467674280     A.U. after   12 cycles

      1  C    Isotropic =   175.3600   Anisotropy =    22.2334

      2  C    Isotropic =   156.6160   Anisotropy =    27.9084

      3  C    Isotropic =   118.5630   Anisotropy =    12.8658

      4  C    Isotropic =   143.9913   Anisotropy =    12.4208

      5  C    Isotropic =   121.7028   Anisotropy =    55.6565

      6  O    Isotropic =   312.0924   Anisotropy =    96.2594

      7  N    Isotropic =   201.8628   Anisotropy =    59.7126

      8  C    Isotropic =   142.7286   Anisotropy =    54.0571

      9  C    Isotropic =    53.3905   Anisotropy =   189.2688

     10  C    Isotropic =    71.7205   Anisotropy =   147.7836

     11  C    Isotropic =    19.4391   Anisotropy =    97.4833

     12  C    Isotropic =    67.1167   Anisotropy =   136.3628

     13  C    Isotropic =    17.4522   Anisotropy =    94.9745

     14  C    Isotropic =    72.5248   Anisotropy =   146.3607

     15  H    Isotropic =    24.6020   Anisotropy =     3.1498

     16  H    Isotropic =    25.0987   Anisotropy =     5.0263

     17  H    Isotropic =    25.1366   Anisotropy =     5.1942

     18  F    Isotropic =   295.1387   Anisotropy =   119.7364

     19  F    Isotropic =   300.4267   Anisotropy =   116.5338

     20  H    Isotropic =    31.0893   Anisotropy =     8.7249

     21  H    Isotropic =    30.9197   Anisotropy =    11.4409

     22  H    Isotropic =    30.8382   Anisotropy =     7.4997

     23  H    Isotropic =    30.3866   Anisotropy =     5.3973

     24  H    Isotropic =    30.6965   Anisotropy =     8.5119

     25  H    Isotropic =    30.8292   Anisotropy =     7.6210

     26  H    Isotropic =    28.6050   Anisotropy =     8.9011

     27  H    Isotropic =    27.9240   Anisotropy =     5.7428

     28  H    Isotropic =    27.9134   Anisotropy =    25.4032

     29  H    Isotropic =    28.2245   Anisotropy =     5.6683

     30  H    Isotropic =    28.3938   Anisotropy =     5.0168

     31  H    Isotropic =    29.4504   Anisotropy =     2.5691

     32  C    Isotropic =   169.1181   Anisotropy =    26.7838

     33  H    Isotropic =    29.9668   Anisotropy =     5.4202

     34  H    Isotropic =    30.9784   Anisotropy =    11.3869

     35  H    Isotropic =    31.0946   Anisotropy =     7.4076

     36  H    Isotropic =    31.2283   Anisotropy =     9.6354

 The electronic state is 1-A.
 Alpha  occ. eigenvalues --  -24.80520 -24.80056 -19.17978 -14.39669 -10.34072
 Alpha  occ. eigenvalues --  -10.34052 -10.27657 -10.26907 -10.26890 -10.26395
 Alpha  occ. eigenvalues --  -10.26307 -10.25623 -10.25535 -10.23526 -10.23521
 Alpha  occ. eigenvalues --  -10.22425 -10.21510  -1.27271  -1.27012  -1.02617
 Alpha  occ. eigenvalues --   -0.94986  -0.90946  -0.83384  -0.80253  -0.79060
 Alpha  occ. eigenvalues --   -0.78617  -0.72093  -0.69255  -0.67923  -0.66140
 Alpha  occ. eigenvalues --   -0.64279  -0.62114  -0.59019  -0.58130  -0.55911
 Alpha  occ. eigenvalues --   -0.52509  -0.51889  -0.51745  -0.50910  -0.49623
 Alpha  occ. eigenvalues --   -0.49181  -0.47994  -0.47032  -0.46732  -0.46215
 Alpha  occ. eigenvalues --   -0.44684  -0.43401  -0.43038  -0.41985  -0.41618
 Alpha  occ. eigenvalues --   -0.41164  -0.40346  -0.39264  -0.38375  -0.38142
 Alpha  occ. eigenvalues --   -0.37687  -0.36829  -0.35910  -0.34003  -0.33429
 Alpha  occ. eigenvalues --   -0.32723  -0.27953  -0.27244  -0.26568  -0.25350
 Alpha virt. eigenvalues --   -0.02581  -0.01143   0.04700   0.05699   0.06981
 Alpha virt. eigenvalues --    0.07328   0.08083   0.10177   0.10326   0.10602
 Alpha virt. eigenvalues --    0.11012   0.11261   0.12338   0.12773   0.13234

 Mulliken charges:
               1
     1  C   -0.659295
     2  C   -0.490188
     3  C   -0.087763
     4  C   -0.294380
     5  C   -0.192243
     6  O   -0.611865
     7  N   -0.619737
     8  C   -0.347501
     9  C   -0.208913
    10  C   -0.264740
    11  C    0.315942
    12  C   -0.148054
    13  C    0.325826
    14  C   -0.260481
    15  H    0.236497
    16  H    0.240566
    17  H    0.240433
    18  F   -0.244168
    19  F   -0.250302
    20  H    0.226893
    21  H    0.233627
    22  H    0.223135
    23  H    0.236613
    24  H    0.235623
    25  H    0.222817
    26  H    0.214756
    27  H    0.205559
    28  H    0.409847
    29  H    0.271472
    30  H    0.239418
    31  H    0.227116
    32  C   -0.664727
    33  H    0.231967
    34  H    0.229354
    35  H    0.222802
    36  H    0.354094
 Sum of Mulliken charges =   0.00000

 Dipole moment (field-independent basis, Debye):
    X=              1.5209    Y=              3.2498    Z=             -1.8016  Tot=              4.0150
 Quadrupole moment (field-independent basis, Debye-Ang):
   XX=            -82.3727   YY=           -107.6999   ZZ=           -106.9405
   XY=             -5.0618   XZ=              8.1094   YZ=              5.6399

 Normal termination of Gaussian 09 at Wed Mar  6 15:58:40 2019.
