 Gaussian 09, Revision D.01,
 Gaussian 09:  EM64L-G09RevD.01 24-Apr-2013

 ----------------------------------------------------------------------
 # mPW1PW91/6-311g(d) geom=checkpoint nmr=giao scrf=(solvent=chloroform
 )
 ----------------------------------------------------------------------

 ------------
 AT3_1ginp004
 ------------
 Structure from the checkpoint file:  "AT3_1ginp004.chk"
 Charge =  0 Multiplicity = 1

                         Standard orientation:
 ---------------------------------------------------------------------
 Center     Atomic      Atomic             Coordinates (Angstroms)
 Number     Number       Type             X           Y           Z
 ---------------------------------------------------------------------
      1          6           0        1.879676    2.717636    1.110429
      2          6           0        1.414298    1.816545   -0.039667
      3          6           0        1.290748    0.325974    0.329872
      4          6           0        2.596465   -0.288882    0.907267
      5          6           0        3.788370   -0.188415   -0.064407
      6          8           0        3.607476   -0.933611   -1.262743
      7          7           0        0.883351   -0.468441   -0.857368
      8          6           0       -0.382050   -0.108927   -1.520198
      9          6           0       -3.934709   -0.236499    0.988739
     10          6           0       -3.522667    0.980538    0.446188
     11          6           0       -2.383026    0.998828   -0.350337
     12          6           0       -1.621885   -0.134334   -0.640333
     13          6           0       -2.086059   -1.320429   -0.066425
     14          6           0       -3.214348   -1.406302    0.736445
     15          1           0       -4.821024   -0.274965    1.613070
     16          1           0       -4.063762    1.902128    0.626746
     17          1           0       -3.512266   -2.365027    1.144732
     18          9           0       -1.989244    2.186001   -0.876445
     19          9           0       -1.377759   -2.451953   -0.317507
     20          1           0        2.919304    2.529196    1.394278
     21          1           0        1.805548    3.770931    0.822901
     22          1           0        1.259330    2.574924    2.002789
     23          1           0        0.434006    2.173339   -0.369704
     24          1           0        2.085337    1.926155   -0.900535
     25          1           0        2.854950    0.312880    1.787530
     26          1           0        4.685126   -0.586098    0.426813
     27          1           0        3.995709    0.870493   -0.287686
     28          1           0        2.687480   -0.742406   -1.540721
     29          1           0       -0.289650    0.876822   -1.975374
     30          1           0       -0.517486   -0.824062   -2.337749
     31          1           0        0.525635    0.254644    1.124612
     32          6           0        2.397998   -1.737047    1.386634
     33          1           0        1.497492   -1.839142    2.002327
     34          1           0        2.326304   -2.433485    0.545640
     35          1           0        3.253108   -2.057733    1.990478
     36          1           0        0.797750   -1.439174   -0.566302
 ---------------------------------------------------------------------

 SCF Done:  E(RmPW1PW91) =  -836.468638335     A.U. after   12 cycles

      1  C    Isotropic =   177.2111   Anisotropy =    17.4040

      2  C    Isotropic =   163.4718   Anisotropy =    18.0649

      3  C    Isotropic =   124.8391   Anisotropy =    14.4503

      4  C    Isotropic =   151.0082   Anisotropy =    10.8800

      5  C    Isotropic =   123.1321   Anisotropy =    57.7586

      6  O    Isotropic =   305.7201   Anisotropy =   111.9318

      7  N    Isotropic =   197.7384   Anisotropy =    34.4511

      8  C    Isotropic =   148.5801   Anisotropy =    44.4997

      9  C    Isotropic =    53.5814   Anisotropy =   189.0631

     10  C    Isotropic =    72.1675   Anisotropy =   146.7721

     11  C    Isotropic =    18.5819   Anisotropy =    97.2908

     12  C    Isotropic =    67.3665   Anisotropy =   135.9463

     13  C    Isotropic =    16.7629   Anisotropy =    95.1931

     14  C    Isotropic =    72.1576   Anisotropy =   146.8370

     15  H    Isotropic =    24.6271   Anisotropy =     3.0266

     16  H    Isotropic =    25.1198   Anisotropy =     4.9172

     17  H    Isotropic =    25.1128   Anisotropy =     5.0321

     18  F    Isotropic =   296.8839   Anisotropy =   118.9948

     19  F    Isotropic =   297.6143   Anisotropy =   131.3055

     20  H    Isotropic =    31.3224   Anisotropy =     8.3241

     21  H    Isotropic =    31.0669   Anisotropy =    11.3758

     22  H    Isotropic =    31.6677   Anisotropy =     8.5774

     23  H    Isotropic =    30.0292   Anisotropy =     9.5045

     24  H    Isotropic =    30.6760   Anisotropy =     6.0047

     25  H    Isotropic =    30.5994   Anisotropy =     6.5781

     26  H    Isotropic =    28.7846   Anisotropy =     8.4317

     27  H    Isotropic =    27.9800   Anisotropy =     5.1941

     28  H    Isotropic =    28.9087   Anisotropy =    22.8365

     29  H    Isotropic =    28.0703   Anisotropy =     6.0817

     30  H    Isotropic =    28.1785   Anisotropy =     7.9006

     31  H    Isotropic =    29.6421   Anisotropy =     4.5124

     32  C    Isotropic =   172.3079   Anisotropy =    27.4625

     33  H    Isotropic =    31.6103   Anisotropy =     8.1829

     34  H    Isotropic =    30.4499   Anisotropy =     5.6127

     35  H    Isotropic =    31.0569   Anisotropy =    11.6114

     36  H    Isotropic =    30.1164   Anisotropy =     9.6994

 The electronic state is 1-A.
 Alpha  occ. eigenvalues --  -24.80454 -24.80287 -19.18525 -14.39590 -10.34112
 Alpha  occ. eigenvalues --  -10.34078 -10.27687 -10.26840 -10.26777 -10.26562
 Alpha  occ. eigenvalues --  -10.26454 -10.25685 -10.25653 -10.23856 -10.22923
 Alpha  occ. eigenvalues --  -10.22146 -10.21971  -1.27254  -1.27109  -1.03047
 Alpha  occ. eigenvalues --   -0.94913  -0.90947  -0.83269  -0.80425  -0.79107
 Alpha  occ. eigenvalues --   -0.78412  -0.72340  -0.69594  -0.67917  -0.66119
 Alpha  occ. eigenvalues --   -0.64588  -0.62282  -0.59022  -0.57171  -0.55805
 Alpha  occ. eigenvalues --   -0.52535  -0.51852  -0.51742  -0.51071  -0.49793
 Alpha  occ. eigenvalues --   -0.49389  -0.48966  -0.47257  -0.46683  -0.46169
 Alpha  occ. eigenvalues --   -0.45209  -0.43854  -0.42486  -0.42116  -0.41653
 Alpha  occ. eigenvalues --   -0.40507  -0.39757  -0.38817  -0.38638  -0.38397
 Alpha  occ. eigenvalues --   -0.37940  -0.37448  -0.35767  -0.34145  -0.33277
 Alpha  occ. eigenvalues --   -0.32393  -0.28100  -0.27346  -0.27121  -0.25351
 Alpha virt. eigenvalues --   -0.02646  -0.01256   0.04979   0.05467   0.06504
 Alpha virt. eigenvalues --    0.07294   0.08339   0.10014   0.10493   0.10678
 Alpha virt. eigenvalues --    0.11560   0.11676   0.12340   0.13017   0.13081

 Mulliken charges:
               1
     1  C   -0.673218
     2  C   -0.461058
     3  C   -0.102015
     4  C   -0.320645
     5  C   -0.191537
     6  O   -0.612612
     7  N   -0.600470
     8  C   -0.393347
     9  C   -0.210899
    10  C   -0.258818
    11  C    0.321756
    12  C   -0.157133
    13  C    0.324495
    14  C   -0.259384
    15  H    0.236413
    16  H    0.240164
    17  H    0.240475
    18  F   -0.248353
    19  F   -0.250523
    20  H    0.229867
    21  H    0.231757
    22  H    0.225985
    23  H    0.243713
    24  H    0.232949
    25  H    0.242187
    26  H    0.217034
    27  H    0.210812
    28  H    0.405053
    29  H    0.272627
    30  H    0.266944
    31  H    0.223282
    32  C   -0.676976
    33  H    0.230583
    34  H    0.232007
    35  H    0.235063
    36  H    0.353823
 Sum of Mulliken charges =   0.00000

 Dipole moment (field-independent basis, Debye):
    X=             -4.4747    Y=              1.0478    Z=              2.8507  Tot=              5.4081
 Quadrupole moment (field-independent basis, Debye-Ang):
   XX=           -103.2589   YY=           -103.7779   ZZ=           -102.2578
   XY=              6.7594   XZ=              3.4740   YZ=             -2.2610

 Normal termination of Gaussian 09 at Wed Mar  6 12:21:41 2019.
