 Gaussian 09, Revision D.01,
 Gaussian 09:  EM64L-G09RevD.01 24-Apr-2013

 ----------------------------------------------------------------------
 # mPW1PW91/6-311g(d) geom=checkpoint nmr=giao scrf=(solvent=chloroform
 )
 ----------------------------------------------------------------------

 ------------
 AT3_2ginp012
 ------------
 Structure from the checkpoint file:  "AT3_2ginp012.chk"
 Charge =  0 Multiplicity = 1

                         Standard orientation:
 ---------------------------------------------------------------------
 Center     Atomic      Atomic             Coordinates (Angstroms)
 Number     Number       Type             X           Y           Z
 ---------------------------------------------------------------------
      1          6           0        1.560061    3.372042   -0.292208
      2          6           0        2.379459    2.221121    0.303559
      3          6           0        1.985347    0.835226   -0.239292
      4          6           0        2.996669   -0.271437    0.161814
      5          6           0        2.666241   -1.572830   -0.574029
      6          8           0        3.706789   -2.520806   -0.326854
      7          7           0        0.612545    0.460978    0.168753
      8          6           0       -0.349474    0.325621   -0.931484
      9          6           0       -4.224246   -0.789009    0.657297
     10          6           0       -3.289932   -1.781638    0.354992
     11          6           0       -2.057752   -1.395058   -0.156875
     12          6           0       -1.706372   -0.065754   -0.400503
     13          6           0       -2.675418    0.881469   -0.067392
     14          6           0       -3.924780    0.557743    0.447972
     15          1           0       -5.192483   -1.067662    1.059766
     16          1           0       -3.499805   -2.833436    0.511039
     17          1           0       -4.631451    1.346389    0.678721
     18          9           0       -1.150369   -2.355122   -0.452973
     19          9           0       -2.373227    2.189684   -0.260048
     20          1           0        1.859019    4.331815    0.140759
     21          1           0        1.701285    3.436453   -1.376939
     22          1           0        0.487639    3.247823   -0.105869
     23          1           0        3.444558    2.388604    0.101398
     24          1           0        2.273680    2.223145    1.396488
     25          1           0        3.986071    0.050428   -0.195605
     26          1           0        2.580998   -1.371052   -1.654918
     27          1           0        1.693567   -1.951109   -0.229409
     28          1           0        3.404563   -3.377801   -0.653630
     29          1           0       -0.453007    1.240340   -1.535332
     30          1           0        0.005571   -0.463333   -1.600356
     31          1           0        2.008986    0.904175   -1.338380
     32          6           0        3.071272   -0.502539    1.676625
     33          1           0        2.074753   -0.724014    2.073000
     34          1           0        3.724753   -1.350217    1.895871
     35          1           0        3.463532    0.372389    2.204281
     36          1           0        0.251560    1.135861    0.837009
 ---------------------------------------------------------------------

 SCF Done:  E(RmPW1PW91) =  -836.460712138     A.U. after   12 cycles

      1  C    Isotropic =   175.2103   Anisotropy =    21.6323

      2  C    Isotropic =   156.3419   Anisotropy =    27.5236

      3  C    Isotropic =   123.4876   Anisotropy =    19.8944

      4  C    Isotropic =   142.0863   Anisotropy =    27.3453

      5  C    Isotropic =   117.5178   Anisotropy =    56.6147

      6  O    Isotropic =   311.9330   Anisotropy =   101.3604

      7  N    Isotropic =   205.9027   Anisotropy =    67.1242

      8  C    Isotropic =   143.3862   Anisotropy =    55.8108

      9  C    Isotropic =    53.9204   Anisotropy =   188.2330

     10  C    Isotropic =    72.1197   Anisotropy =   146.6296

     11  C    Isotropic =    17.7009   Anisotropy =    98.1171

     12  C    Isotropic =    65.7404   Anisotropy =   138.9876

     13  C    Isotropic =    18.3932   Anisotropy =    96.4386

     14  C    Isotropic =    72.6215   Anisotropy =   146.1077

     15  H    Isotropic =    24.6412   Anisotropy =     3.1499

     16  H    Isotropic =    25.1312   Anisotropy =     5.1635

     17  H    Isotropic =    25.1663   Anisotropy =     4.9627

     18  F    Isotropic =   297.7066   Anisotropy =   123.0424

     19  F    Isotropic =   301.3235   Anisotropy =   113.4205

     20  H    Isotropic =    30.9509   Anisotropy =    11.4072

     21  H    Isotropic =    31.0534   Anisotropy =     8.4374

     22  H    Isotropic =    30.7326   Anisotropy =     7.5167

     23  H    Isotropic =    30.6152   Anisotropy =     8.5828

     24  H    Isotropic =    30.6267   Anisotropy =     5.2556

     25  H    Isotropic =    30.3974   Anisotropy =     6.6348

     26  H    Isotropic =    28.1684   Anisotropy =     4.7429

     27  H    Isotropic =    28.1139   Anisotropy =     8.2931

     28  H    Isotropic =    31.4885   Anisotropy =    19.8632

     29  H    Isotropic =    28.1183   Anisotropy =     5.9476

     30  H    Isotropic =    28.7668   Anisotropy =     5.0488

     31  H    Isotropic =    29.6535   Anisotropy =     2.2761

     32  C    Isotropic =   178.3281   Anisotropy =    18.4464

     33  H    Isotropic =    31.2556   Anisotropy =     5.9907

     34  H    Isotropic =    30.7900   Anisotropy =     9.4035

     35  H    Isotropic =    31.4867   Anisotropy =     9.2140

     36  H    Isotropic =    32.2480   Anisotropy =     8.3928

 The electronic state is 1-A.
 Alpha  occ. eigenvalues --  -24.80025 -24.79864 -19.20250 -14.37796 -10.33809
 Alpha  occ. eigenvalues --  -10.33768 -10.27003 -10.26580 -10.26520 -10.26206
 Alpha  occ. eigenvalues --  -10.26128 -10.25388 -10.25350 -10.22981 -10.22878
 Alpha  occ. eigenvalues --  -10.22019 -10.20627  -1.26882  -1.26748  -1.04249
 Alpha  occ. eigenvalues --   -0.94043  -0.90615  -0.83031  -0.79795  -0.78812
 Alpha  occ. eigenvalues --   -0.78216  -0.71441  -0.69338  -0.67640  -0.65858
 Alpha  occ. eigenvalues --   -0.63818  -0.61359  -0.58680  -0.57279  -0.55507
 Alpha  occ. eigenvalues --   -0.52763  -0.51978  -0.51525  -0.50825  -0.49245
 Alpha  occ. eigenvalues --   -0.49049  -0.48775  -0.46640  -0.46502  -0.45725
 Alpha  occ. eigenvalues --   -0.43919  -0.43578  -0.42788  -0.41572  -0.41354
 Alpha  occ. eigenvalues --   -0.40702  -0.39439  -0.38397  -0.38188  -0.37773
 Alpha  occ. eigenvalues --   -0.37669  -0.35749  -0.35413  -0.33835  -0.33354
 Alpha  occ. eigenvalues --   -0.31954  -0.28067  -0.27665  -0.27015  -0.23803
 Alpha virt. eigenvalues --   -0.02314  -0.00903   0.05128   0.05866   0.06138
 Alpha virt. eigenvalues --    0.07266   0.07648   0.08807   0.10310   0.10814
 Alpha virt. eigenvalues --    0.11430   0.11736   0.12370   0.12911   0.13276

 Mulliken charges:
               1
     1  C   -0.660091
     2  C   -0.478808
     3  C   -0.126485
     4  C   -0.235092
     5  C   -0.188061
     6  O   -0.615465
     7  N   -0.545581
     8  C   -0.342094
     9  C   -0.210454
    10  C   -0.264831
    11  C    0.335957
    12  C   -0.178471
    13  C    0.323661
    14  C   -0.266519
    15  H    0.234615
    16  H    0.238172
    17  H    0.238377
    18  F   -0.244749
    19  F   -0.249289
    20  H    0.230518
    21  H    0.223723
    22  H    0.222264
    23  H    0.229874
    24  H    0.230830
    25  H    0.216037
    26  H    0.195833
    27  H    0.221416
    28  H    0.410045
    29  H    0.228550
    30  H    0.253024
    31  H    0.225284
    32  C   -0.671011
    33  H    0.222389
    34  H    0.235081
    35  H    0.223908
    36  H    0.337442
 Sum of Mulliken charges =   0.00000

 Dipole moment (field-independent basis, Debye):
    X=             -3.1248    Y=              0.3490    Z=             -0.5955  Tot=              3.2001
 Quadrupole moment (field-independent basis, Debye-Ang):
   XX=            -99.7111   YY=            -96.7813   ZZ=           -101.7928
   XY=              7.4479   XZ=             -7.4484   YZ=              3.0482

 Normal termination of Gaussian 09 at Wed Mar  6 12:35:49 2019.
