 Gaussian 09, Revision D.01,
 Gaussian 09:  EM64L-G09RevD.01 24-Apr-2013

 ---------------------------------------------------------------
 # b3lyp/6-31g(d,p) Opt=(maxcycles=50) scrf=(solvent=chloroform)
 ---------------------------------------------------------------

 -------------
 P_ng_2ginp007
 -------------
 Symbolic Z-matrix:
 Charge =  0 Multiplicity = 1

 SCF Done:  E(RB3LYP) =  -1064.42253173     A.U. after   13 cycles
 SCF Done:  E(RB3LYP) =  -1064.42253126     A.U. after    8 cycles
 SCF Done:  E(RB3LYP) =  -1064.42253401     A.U. after    8 cycles
 SCF Done:  E(RB3LYP) =  -1064.42253640     A.U. after    7 cycles
 SCF Done:  E(RB3LYP) =  -1064.42253668     A.U. after    7 cycles
 SCF Done:  E(RB3LYP) =  -1064.42253758     A.U. after    7 cycles
 SCF Done:  E(RB3LYP) =  -1064.42253767     A.U. after    6 cycles
 SCF Done:  E(RB3LYP) =  -1064.42253790     A.U. after    7 cycles
 SCF Done:  E(RB3LYP) =  -1064.42253785     A.U. after    6 cycles
 Optimization completed.
    -- Stationary point found.

                         Standard orientation:
 ---------------------------------------------------------------------
 Center     Atomic      Atomic             Coordinates (Angstroms)
 Number     Number       Type             X           Y           Z
 ---------------------------------------------------------------------
      1          6           0        2.402149    0.200303    0.328888
      2          6           0        1.012579    0.323200    0.967920
      3          6           0       -0.093758   -0.069507   -0.053699
      4          6           0        0.171602   -1.545957   -0.398252
      5          6           0        1.595865   -1.864768   -0.813347
      6          1           0        2.527848    0.997633   -0.415196
      7          1           0        0.941282   -0.433930    1.761359
      8          1           0       -0.042369   -2.154273    0.488586
      9          1           0       -0.477306   -1.909090   -1.197702
     10          8           0        2.590556   -1.049639   -0.410321
     11          8           0        1.877328   -2.849995   -1.464078
     12          6           0        3.560740    0.266301    1.326540
     13          6           0        4.942834    0.178489    0.671892
     14          6           0        0.819776    1.695168    1.632356
     15          8           0       -1.334370    0.055692    0.633745
     16         14           0       -2.956014   -0.296547    0.347487
     17          6           0       -3.729048   -0.215017    2.060519
     18          6           0       -3.761220    0.991043   -0.773013
     19          6           0       -3.222128   -2.011012   -0.396572
     20          1           0       -3.645712    2.003087   -0.371190
     21          1           0       -3.352958    0.983692   -1.788629
     22          1           0       -4.835965    0.787778   -0.850500
     23          1           0       -2.861111   -2.085222   -1.427369
     24          1           0       -2.734408   -2.794463    0.191982
     25          1           0       -4.296449   -2.230286   -0.412558
     26          1           0       -3.298132   -0.970055    2.726193
     27          1           0       -3.570684    0.766236    2.519909
     28          1           0       -4.809491   -0.389923    2.008633
     29          1           0        1.427304    1.774324    2.537527
     30          1           0        1.090181    2.517284    0.965715
     31          1           0       -0.225478    1.817630    1.921269
     32          1           0        3.435261   -0.542483    2.057577
     33          1           0        3.480227    1.208120    1.878416
     34          1           0        5.730488    0.242171    1.428644
     35          1           0        5.064886   -0.762549    0.130558
     36          1           0        5.095837    0.998637   -0.038612
     37          6           0       -0.104822    0.751106   -1.372990
     38          6           0       -0.343957    2.232607   -1.266568
     39          6           0        0.352975    3.158831   -1.927490
     40          1           0       -0.901548    0.312006   -1.990593
     41          1           0        0.825466    0.570855   -1.924089
     42          1           0       -1.171406    2.540965   -0.631407
     43          1           0        0.114876    4.215379   -1.847062
     44          1           0        1.183929    2.894954   -2.578145
 ---------------------------------------------------------------------

 The electronic state is 1-A.
 Alpha  occ. eigenvalues --  -66.14485 -19.18818 -19.13909 -19.12950 -10.31856
 Alpha  occ. eigenvalues --  -10.26248 -10.25226 -10.19903 -10.19874 -10.19518
 Alpha  occ. eigenvalues --  -10.19293 -10.18831 -10.18086 -10.17479 -10.17384
 Alpha  occ. eigenvalues --  -10.16146 -10.16029 -10.15866  -5.28517  -3.64618
 Alpha  occ. eigenvalues --   -3.64319  -3.64307  -1.09517  -1.01245  -1.00643
 Alpha  occ. eigenvalues --   -0.82836  -0.80157  -0.77884  -0.74899  -0.71255
 Alpha  occ. eigenvalues --   -0.70080  -0.69034  -0.67747  -0.67594  -0.64145
 Alpha  occ. eigenvalues --   -0.61252  -0.59479  -0.56572  -0.54026  -0.50738
 Alpha  occ. eigenvalues --   -0.50170  -0.48408  -0.46714  -0.46088  -0.44925
 Alpha  occ. eigenvalues --   -0.44664  -0.43355  -0.42566  -0.42169  -0.41819
 Alpha  occ. eigenvalues --   -0.40901  -0.40625  -0.39825  -0.39695  -0.39274
 Alpha  occ. eigenvalues --   -0.39039  -0.38682  -0.38158  -0.37961  -0.36892
 Alpha  occ. eigenvalues --   -0.36610  -0.36170  -0.35225  -0.34772  -0.34188
 Alpha  occ. eigenvalues --   -0.33900  -0.32471  -0.31582  -0.30414  -0.29098
 Alpha  occ. eigenvalues --   -0.28286  -0.27796  -0.26140  -0.25246
 Alpha virt. eigenvalues --    0.00768   0.01289   0.06245   0.07420   0.08584
 Alpha virt. eigenvalues --    0.09419   0.09748   0.10195   0.11130   0.11576
 Alpha virt. eigenvalues --    0.12155   0.12755   0.13355   0.14003   0.14540

 Mulliken charges:
               1
     1  C    0.173850
     2  C   -0.090963
     3  C    0.304740
     4  C   -0.293948
     5  C    0.593042
     6  H    0.114408
     7  H    0.103157
     8  H    0.156105
     9  H    0.137780
    10  O   -0.486518
    11  O   -0.501642
    12  C   -0.187676
    13  C   -0.328317
    14  C   -0.339895
    15  O   -0.641300
    16  Si   0.896961
    17  C   -0.531670
    18  C   -0.550415
    19  C   -0.552384
    20  H    0.121235
    21  H    0.120047
    22  H    0.121310
    23  H    0.120503
    24  H    0.122738
    25  H    0.122793
    26  H    0.121047
    27  H    0.121581
    28  H    0.118290
    29  H    0.109222
    30  H    0.115230
    31  H    0.128034
    32  H    0.107316
    33  H    0.112882
    34  H    0.106410
    35  H    0.125604
    36  H    0.106013
    37  C   -0.235767
    38  C   -0.017277
    39  C   -0.267311
    40  H    0.122655
    41  H    0.109810
    42  H    0.104190
    43  H    0.105938
    44  H    0.102192
 Sum of Mulliken charges =   0.00000

 Dipole moment (field-independent basis, Debye):
    X=             -2.6933    Y=              3.4792    Z=              1.9880  Tot=              4.8281
 Quadrupole moment (field-independent basis, Debye-Ang):
   XX=           -116.3100   YY=           -127.4677   ZZ=           -119.8520
   XY=             12.0466   XZ=              7.2911   YZ=             -7.4991

 Normal termination of Gaussian 09 at Wed Feb  6 14:08:37 2019.
