 Gaussian 09, Revision D.01,
 Gaussian 09:  ES64L-G09RevD.01 24-Apr-2013

 ---------------------------------------------------------------
 # b3lyp/6-31g(d,p) Opt=(maxcycles=25) scrf=(solvent=chloroform)
 ---------------------------------------------------------------

 --------------------
 P_ng_correct1ginp008
 --------------------
 Symbolic Z-matrix:
 Charge =  0 Multiplicity = 1

 SCF Done:  E(RB3LYP) =  -1064.41544526     A.U. after   13 cycles
 SCF Done:  E(RB3LYP) =  -1064.42167461     A.U. after   11 cycles
 SCF Done:  E(RB3LYP) =  -1064.42216269     A.U. after   10 cycles
 SCF Done:  E(RB3LYP) =  -1064.42233818     A.U. after   10 cycles
 SCF Done:  E(RB3LYP) =  -1064.42258751     A.U. after    9 cycles
 SCF Done:  E(RB3LYP) =  -1064.42264156     A.U. after   10 cycles
 SCF Done:  E(RB3LYP) =  -1064.42268147     A.U. after    9 cycles
 SCF Done:  E(RB3LYP) =  -1064.42270748     A.U. after    8 cycles
 SCF Done:  E(RB3LYP) =  -1064.42272112     A.U. after    9 cycles
 SCF Done:  E(RB3LYP) =  -1064.42273256     A.U. after    8 cycles
 SCF Done:  E(RB3LYP) =  -1064.42274778     A.U. after    7 cycles
 SCF Done:  E(RB3LYP) =  -1064.42274973     A.U. after    8 cycles
 SCF Done:  E(RB3LYP) =  -1064.42275146     A.U. after    7 cycles
 SCF Done:  E(RB3LYP) =  -1064.42275284     A.U. after    7 cycles
 SCF Done:  E(RB3LYP) =  -1064.42275379     A.U. after    7 cycles
 SCF Done:  E(RB3LYP) =  -1064.42275389     A.U. after    7 cycles
 SCF Done:  E(RB3LYP) =  -1064.42275382     A.U. after    6 cycles
 SCF Done:  E(RB3LYP) =  -1064.42275387     A.U. after    5 cycles
 SCF Done:  E(RB3LYP) =  -1064.42275391     A.U. after    5 cycles
 SCF Done:  E(RB3LYP) =  -1064.42275404     A.U. after    5 cycles
 Optimization completed.
    -- Stationary point found.

                         Standard orientation:
 ---------------------------------------------------------------------
 Center     Atomic      Atomic             Coordinates (Angstroms)
 Number     Number       Type             X           Y           Z
 ---------------------------------------------------------------------
      1          6           0       -2.219480   -0.171568   -0.307807
      2          6           0       -0.815598   -0.230796   -0.936042
      3          6           0        0.134572    0.776862   -0.212786
      4          6           0       -0.295957    0.921660    1.279640
      5          6           0       -1.129364   -0.199689    1.854226
      6          1           0       -2.581330    0.866035   -0.265465
      7          1           0       -0.445035   -1.232936   -0.684515
      8          1           0        0.579197    1.065375    1.912497
      9          1           0       -0.906955    1.827472    1.384270
     10          8           0       -2.121607   -0.666866    1.062235
     11          8           0       -0.997782   -0.653882    2.971548
     12          6           0       -3.279675   -1.036358   -0.985342
     13          6           0       -4.638532   -0.997676   -0.279011
     14          6           0       -0.809721   -0.104818   -2.465080
     15          8           0        1.491347    0.348737   -0.296820
     16         14           0        2.359151   -1.079444   -0.084562
     17          6           0        2.413207   -2.052477   -1.700761
     18          6           0        4.092535   -0.494165    0.354268
     19          6           0        1.667726   -2.168871    1.291043
     20          1           0        4.493952    0.165859   -0.421903
     21          1           0        4.098664    0.057848    1.299938
     22          1           0        4.777010   -1.343658    0.457337
     23          1           0        1.508352   -1.614218    2.220225
     24          1           0        0.717564   -2.641041    1.020929
     25          1           0        2.381880   -2.974290    1.500322
     26          1           0        2.812501   -1.440433   -2.516689
     27          1           0        3.064371   -2.928106   -1.594292
     28          1           0        1.425018   -2.413033   -2.004332
     29          1           0       -1.283084   -0.974055   -2.927787
     30          1           0       -1.339559    0.787920   -2.811458
     31          1           0        0.217112   -0.053662   -2.836074
     32          1           0       -2.909708   -2.067957   -1.038419
     33          1           0       -3.394668   -0.685722   -2.015945
     34          1           0       -5.364432   -1.620777   -0.809678
     35          1           0       -4.560420   -1.363411    0.747510
     36          1           0       -5.036440    0.022788   -0.244397
     37          6           0        0.107514    2.179647   -0.877632
     38          6           0        0.926704    3.214284   -0.156290
     39          6           0        0.459295    4.384177    0.282494
     40          1           0       -0.930124    2.524180   -0.961689
     41          1           0        0.498451    2.064739   -1.894530
     42          1           0        1.975433    2.964084   -0.006459
     43          1           0        1.100695    5.102669    0.784566
     44          1           0       -0.581573    4.671377    0.148692
 ---------------------------------------------------------------------

 The electronic state is 1-A.
 Alpha  occ. eigenvalues --  -66.14235 -19.18873 -19.13590 -19.13136 -10.31587
 Alpha  occ. eigenvalues --  -10.26481 -10.25447 -10.20392 -10.19765 -10.19129
 Alpha  occ. eigenvalues --  -10.19004 -10.18977 -10.18419 -10.17978 -10.17618
 Alpha  occ. eigenvalues --  -10.15864 -10.15737 -10.15712  -5.28285  -3.64387
 Alpha  occ. eigenvalues --   -3.64085  -3.64073  -1.09707  -1.01451  -1.00398
 Alpha  occ. eigenvalues --   -0.82864  -0.80254  -0.77464  -0.75045  -0.71234
 Alpha  occ. eigenvalues --   -0.69780  -0.69459  -0.67496  -0.67437  -0.64359
 Alpha  occ. eigenvalues --   -0.60714  -0.59597  -0.56398  -0.54669  -0.51816
 Alpha  occ. eigenvalues --   -0.49457  -0.48486  -0.46895  -0.46322  -0.44831
 Alpha  occ. eigenvalues --   -0.44015  -0.42937  -0.42675  -0.41854  -0.41726
 Alpha  occ. eigenvalues --   -0.40938  -0.40453  -0.40249  -0.39913  -0.39301
 Alpha  occ. eigenvalues --   -0.38784  -0.38567  -0.37842  -0.37674  -0.37399
 Alpha  occ. eigenvalues --   -0.36945  -0.36208  -0.35081  -0.34827  -0.34381
 Alpha  occ. eigenvalues --   -0.34010  -0.33592  -0.31524  -0.30697  -0.29105
 Alpha  occ. eigenvalues --   -0.28294  -0.26695  -0.26353  -0.25374
 Alpha virt. eigenvalues --    0.00789   0.01700   0.06508   0.07347   0.08498
 Alpha virt. eigenvalues --    0.08974   0.09683   0.10732   0.11323   0.11730
 Alpha virt. eigenvalues --    0.12484   0.12916   0.13382   0.13846   0.14569

 Mulliken charges:
               1
     1  C    0.164946
     2  C   -0.105870
     3  C    0.311294
     4  C   -0.294942
     5  C    0.597135
     6  H    0.107676
     7  H    0.115890
     8  H    0.149504
     9  H    0.152190
    10  O   -0.477050
    11  O   -0.506379
    12  C   -0.195218
    13  C   -0.329202
    14  C   -0.342212
    15  O   -0.636435
    16  Si   0.904637
    17  C   -0.546326
    18  C   -0.532455
    19  C   -0.568640
    20  H    0.121057
    21  H    0.120661
    22  H    0.117865
    23  H    0.132878
    24  H    0.121934
    25  H    0.121453
    26  H    0.119508
    27  H    0.119307
    28  H    0.116422
    29  H    0.116365
    30  H    0.117176
    31  H    0.127117
    32  H    0.111239
    33  H    0.114794
    34  H    0.108386
    35  H    0.127023
    36  H    0.106114
    37  C   -0.225069
    38  C   -0.034179
    39  C   -0.259426
    40  H    0.099127
    41  H    0.122630
    42  H    0.105463
    43  H    0.105560
    44  H    0.098050
 Sum of Mulliken charges =   0.00000

 Dipole moment (field-independent basis, Debye):
    X=             -0.2034    Y=              1.0913    Z=             -4.7544  Tot=              4.8823
 Quadrupole moment (field-independent basis, Debye-Ang):
   XX=           -113.2325   YY=           -115.6717   ZZ=           -130.1338
   XY=             -5.6972   XZ=              8.6718   YZ=              6.6101

 Normal termination of Gaussian 09 at Wed Feb  6 11:40:04 2019.
