 Gaussian 09, Revision D.01,
 Gaussian 09:  ES64L-G09RevD.01 24-Apr-2013

 ---------------------------------------------------------------
 # b3lyp/6-31g(d,p) Opt=(maxcycles=25) scrf=(solvent=chloroform)
 ---------------------------------------------------------------

 --------------------
 P_ng_correct1ginp016
 --------------------
 Symbolic Z-matrix:
 Charge =  0 Multiplicity = 1

 SCF Done:  E(RB3LYP) =  -1064.41526362     A.U. after   13 cycles
 SCF Done:  E(RB3LYP) =  -1064.42072290     A.U. after   10 cycles
 SCF Done:  E(RB3LYP) =  -1064.42150168     A.U. after   10 cycles
 SCF Done:  E(RB3LYP) =  -1064.42146210     A.U. after   10 cycles
 SCF Done:  E(RB3LYP) =  -1064.42185872     A.U. after    9 cycles
 SCF Done:  E(RB3LYP) =  -1064.42195626     A.U. after    9 cycles
 SCF Done:  E(RB3LYP) =  -1064.42197604     A.U. after    9 cycles
 SCF Done:  E(RB3LYP) =  -1064.42201800     A.U. after    9 cycles
 SCF Done:  E(RB3LYP) =  -1064.42203206     A.U. after    8 cycles
 SCF Done:  E(RB3LYP) =  -1064.42204457     A.U. after    8 cycles
 SCF Done:  E(RB3LYP) =  -1064.42204668     A.U. after    7 cycles
 SCF Done:  E(RB3LYP) =  -1064.42204890     A.U. after    7 cycles
 SCF Done:  E(RB3LYP) =  -1064.42204960     A.U. after    7 cycles
 SCF Done:  E(RB3LYP) =  -1064.42205028     A.U. after    7 cycles
 SCF Done:  E(RB3LYP) =  -1064.42205068     A.U. after    7 cycles
 SCF Done:  E(RB3LYP) =  -1064.42205096     A.U. after    7 cycles
 SCF Done:  E(RB3LYP) =  -1064.42205101     A.U. after    6 cycles
 SCF Done:  E(RB3LYP) =  -1064.42205102     A.U. after    6 cycles
 Optimization completed.
    -- Stationary point found.

                         Standard orientation:
 ---------------------------------------------------------------------
 Center     Atomic      Atomic             Coordinates (Angstroms)
 Number     Number       Type             X           Y           Z
 ---------------------------------------------------------------------
      1          6           0       -2.306414    0.027096   -0.403378
      2          6           0       -0.826398    0.062513   -0.808749
      3          6           0        0.057789    0.438869    0.415079
      4          6           0       -0.163332   -0.677351    1.450933
      5          6           0       -1.617868   -0.965644    1.777066
      6          1           0       -2.638420    1.053661   -0.206053
      7          1           0       -0.522389   -0.957861   -1.074056
      8          1           0        0.247360   -1.618916    1.067059
      9          1           0        0.347309   -0.465462    2.392976
     10          8           0       -2.553820   -0.704240    0.842012
     11          8           0       -1.962505   -1.474489    2.823188
     12          6           0       -3.265052   -0.588932   -1.429403
     13          6           0       -2.951890   -2.032128   -1.835276
     14          6           0       -0.623108    0.939113   -2.052947
     15          8           0        1.423770    0.521034    0.022901
     16         14           0        2.698504   -0.556909   -0.199603
     17          6           0        3.370438   -1.162830    1.456293
     18          6           0        2.214790   -2.031960   -1.276002
     19          6           0        4.001594    0.480055   -1.072924
     20          1           0        1.475471   -2.685309   -0.800470
     21          1           0        1.808622   -1.707757   -2.239824
     22          1           0        3.102183   -2.642942   -1.479645
     23          1           0        4.912297   -0.103750   -1.247212
     24          1           0        3.642181    0.838212   -2.043191
     25          1           0        4.274685    1.354265   -0.472831
     26          1           0        3.618744   -0.320241    2.110495
     27          1           0        2.663103   -1.805178    1.989886
     28          1           0        4.287711   -1.742451    1.299540
     29          1           0       -1.075435    1.926661   -1.936300
     30          1           0        0.443417    1.078729   -2.240652
     31          1           0       -1.060169    0.463286   -2.935430
     32          1           0       -3.284156    0.060552   -2.311156
     33          1           0       -4.268897   -0.541902   -0.992873
     34          1           0       -2.888647   -2.681167   -0.956731
     35          1           0       -3.741931   -2.423399   -2.482966
     36          1           0       -2.008990   -2.111666   -2.385581
     37          6           0       -0.274871    1.797787    1.091761
     38          6           0       -0.039522    3.039278    0.276167
     39          6           0       -0.887391    4.066328    0.194954
     40          1           0        0.377394    1.842272    1.975192
     41          1           0       -1.303307    1.790027    1.470289
     42          1           0        0.918343    3.089851   -0.237562
     43          1           0       -0.647007    4.958978   -0.375204
     44          1           0       -1.850691    4.056632    0.700486
 ---------------------------------------------------------------------

 The electronic state is 1-A.
 Alpha  occ. eigenvalues --  -66.14504 -19.18929 -19.13867 -19.13128 -10.31994
 Alpha  occ. eigenvalues --  -10.26248 -10.25333 -10.20165 -10.19986 -10.19160
 Alpha  occ. eigenvalues --  -10.19001 -10.18957 -10.17826 -10.17731 -10.17685
 Alpha  occ. eigenvalues --  -10.16317 -10.16004 -10.15935  -5.28551  -3.64651
 Alpha  occ. eigenvalues --   -3.64354  -3.64339  -1.09604  -1.01381  -1.00671
 Alpha  occ. eigenvalues --   -0.82891  -0.80168  -0.77704  -0.74913  -0.71462
 Alpha  occ. eigenvalues --   -0.70118  -0.69252  -0.67886  -0.67630  -0.64437
 Alpha  occ. eigenvalues --   -0.60425  -0.60064  -0.56229  -0.53878  -0.50941
 Alpha  occ. eigenvalues --   -0.50734  -0.48485  -0.47019  -0.46005  -0.45017
 Alpha  occ. eigenvalues --   -0.44188  -0.43397  -0.42656  -0.42230  -0.41577
 Alpha  occ. eigenvalues --   -0.40960  -0.40773  -0.40095  -0.39636  -0.39356
 Alpha  occ. eigenvalues --   -0.39002  -0.38841  -0.38391  -0.37985  -0.37084
 Alpha  occ. eigenvalues --   -0.36207  -0.36112  -0.35646  -0.34831  -0.34650
 Alpha  occ. eigenvalues --   -0.33865  -0.32450  -0.31517  -0.30834  -0.29203
 Alpha  occ. eigenvalues --   -0.28785  -0.27112  -0.26249  -0.25126
 Alpha virt. eigenvalues --    0.00513   0.01598   0.06123   0.07198   0.08462
 Alpha virt. eigenvalues --    0.09043   0.09147   0.10932   0.11449   0.11816
 Alpha virt. eigenvalues --    0.12597   0.13188   0.13480   0.13524   0.14308

 Mulliken charges:
               1
     1  C    0.167629
     2  C   -0.090297
     3  C    0.309697
     4  C   -0.304039
     5  C    0.591018
     6  H    0.116537
     7  H    0.103201
     8  H    0.151116
     9  H    0.144214
    10  O   -0.485917
    11  O   -0.499002
    12  C   -0.191021
    13  C   -0.332691
    14  C   -0.339543
    15  O   -0.651643
    16  Si   0.913191
    17  C   -0.547007
    18  C   -0.559196
    19  C   -0.535809
    20  H    0.119403
    21  H    0.121989
    22  H    0.123408
    23  H    0.119079
    24  H    0.120412
    25  H    0.123138
    26  H    0.122058
    27  H    0.119038
    28  H    0.120547
    29  H    0.118186
    30  H    0.126725
    31  H    0.109590
    32  H    0.112005
    33  H    0.115706
    34  H    0.119373
    35  H    0.111588
    36  H    0.110692
    37  C   -0.224351
    38  C   -0.021749
    39  C   -0.266090
    40  H    0.124424
    41  H    0.105557
    42  H    0.105493
    43  H    0.103834
    44  H    0.099508
 Sum of Mulliken charges =   0.00000

 Dipole moment (field-independent basis, Debye):
    X=              2.4814    Y=              0.9345    Z=             -4.1679  Tot=              4.9398
 Quadrupole moment (field-independent basis, Debye-Ang):
   XX=           -118.4375   YY=           -119.3788   ZZ=           -127.3757
   XY=             -8.6237   XZ=             11.2718   YZ=              6.9773

 Normal termination of Gaussian 09 at Wed Feb  6 11:22:05 2019.
