 Gaussian 09, Revision D.01,
 Gaussian 09:  EM64L-G09RevD.01 24-Apr-2013

 ---------------------------------------------------------------
 # b3lyp/6-31g(d,p) Opt=(maxcycles=50) scrf=(solvent=chloroform)
 ---------------------------------------------------------------

 --------------------
 P_ng_correct1ginp018
 --------------------
 Symbolic Z-matrix:
 Charge =  0 Multiplicity = 1

 SCF Done:  E(RB3LYP) =  -1064.42308320     A.U. after   13 cycles
 SCF Done:  E(RB3LYP) =  -1064.42323590     A.U. after   10 cycles
 SCF Done:  E(RB3LYP) =  -1064.42335400     A.U. after   10 cycles
 SCF Done:  E(RB3LYP) =  -1064.42340256     A.U. after   10 cycles
 SCF Done:  E(RB3LYP) =  -1064.42353127     A.U. after    9 cycles
 SCF Done:  E(RB3LYP) =  -1064.42385135     A.U. after   10 cycles
 SCF Done:  E(RB3LYP) =  -1064.42423539     A.U. after   11 cycles
 SCF Done:  E(RB3LYP) =  -1064.42456059     A.U. after   11 cycles
 SCF Done:  E(RB3LYP) =  -1064.42467177     A.U. after   10 cycles
 SCF Done:  E(RB3LYP) =  -1064.42481510     A.U. after   10 cycles
 SCF Done:  E(RB3LYP) =  -1064.42495589     A.U. after   11 cycles
 SCF Done:  E(RB3LYP) =  -1064.42504821     A.U. after   10 cycles
 SCF Done:  E(RB3LYP) =  -1064.42506964     A.U. after    9 cycles
 SCF Done:  E(RB3LYP) =  -1064.42507893     A.U. after    9 cycles
 SCF Done:  E(RB3LYP) =  -1064.42507991     A.U. after    7 cycles
 SCF Done:  E(RB3LYP) =  -1064.42508064     A.U. after    7 cycles
 SCF Done:  E(RB3LYP) =  -1064.42508123     A.U. after    7 cycles
 SCF Done:  E(RB3LYP) =  -1064.42508170     A.U. after    7 cycles
 SCF Done:  E(RB3LYP) =  -1064.42508198     A.U. after    7 cycles
 SCF Done:  E(RB3LYP) =  -1064.42508199     A.U. after    6 cycles
 Optimization completed.
    -- Stationary point found.

                         Standard orientation:
 ---------------------------------------------------------------------
 Center     Atomic      Atomic             Coordinates (Angstroms)
 Number     Number       Type             X           Y           Z
 ---------------------------------------------------------------------
      1          6           0       -2.313951   -0.552500   -0.369122
      2          6           0       -0.840754   -0.935057   -0.590617
      3          6           0        0.098001    0.290150   -0.398412
      4          6           0       -0.130677    0.811571    1.027106
      5          6           0       -1.581675    1.071067    1.381474
      6          1           0       -2.674737    0.000072   -1.246358
      7          1           0       -0.558186   -1.648609    0.195239
      8          1           0        0.223852    0.066715    1.749870
      9          1           0        0.419408    1.735462    1.213379
     10          8           0       -2.536973    0.350707    0.759517
     11          8           0       -1.914374    1.859442    2.241591
     12          6           0       -3.233771   -1.751797   -0.126734
     13          6           0       -4.713797   -1.378433    0.000239
     14          6           0       -0.659816   -1.630995   -1.948702
     15          8           0        1.449741   -0.114221   -0.596795
     16         14           0        2.676742   -0.786648    0.338576
     17          6           0        3.983486   -1.259402   -0.929037
     18          6           0        3.379930    0.479863    1.547070
     19          6           0        2.109806   -2.325235    1.276609
     20          1           0        4.271120    0.074319    2.040346
     21          1           0        3.677468    1.396072    1.026091
     22          1           0        2.667964    0.756534    2.330870
     23          1           0        1.348444   -2.111085    2.033958
     24          1           0        1.705825   -3.083224    0.597202
     25          1           0        2.965557   -2.771575    1.796927
     26          1           0        4.314253   -0.386756   -1.501714
     27          1           0        4.863573   -1.691741   -0.440029
     28          1           0        3.596883   -1.998832   -1.638080
     29          1           0       -1.107199   -2.627869   -1.946068
     30          1           0       -1.120758   -1.063353   -2.763649
     31          1           0        0.403508   -1.740245   -2.170815
     32          1           0       -2.893481   -2.268000    0.779758
     33          1           0       -3.105098   -2.453502   -0.957456
     34          1           0       -5.323420   -2.272575    0.161380
     35          1           0       -4.878851   -0.697438    0.838610
     36          1           0       -5.075970   -0.887150   -0.909858
     37          6           0       -0.172099    1.407768   -1.442464
     38          6           0        0.738727    2.598247   -1.313349
     39          6           0        0.329877    3.850168   -1.100468
     40          1           0       -1.214472    1.738057   -1.372220
     41          1           0       -0.038577    0.963332   -2.435992
     42          1           0        1.802283    2.391350   -1.415018
     43          1           0        1.033125    4.674902   -1.029338
     44          1           0       -0.723773    4.098294   -0.993158
 ---------------------------------------------------------------------

 The electronic state is 1-A.
 Alpha  occ. eigenvalues --  -66.14450 -19.18854 -19.13777 -19.13007 -10.31889
 Alpha  occ. eigenvalues --  -10.26158 -10.25416 -10.20137 -10.19883 -10.18991
 Alpha  occ. eigenvalues --  -10.18990 -10.18905 -10.18079 -10.17877 -10.17484
 Alpha  occ. eigenvalues --  -10.16273 -10.15952 -10.15912  -5.28495  -3.64594
 Alpha  occ. eigenvalues --   -3.64300  -3.64283  -1.09554  -1.01295  -1.00599
 Alpha  occ. eigenvalues --   -0.82886  -0.80315  -0.77535  -0.75003  -0.71443
 Alpha  occ. eigenvalues --   -0.69784  -0.69328  -0.67842  -0.67600  -0.63984
 Alpha  occ. eigenvalues --   -0.61497  -0.59457  -0.56242  -0.54008  -0.51379
 Alpha  occ. eigenvalues --   -0.49858  -0.47825  -0.47051  -0.46718  -0.45459
 Alpha  occ. eigenvalues --   -0.44214  -0.43007  -0.42913  -0.42259  -0.41570
 Alpha  occ. eigenvalues --   -0.40801  -0.40525  -0.40223  -0.39529  -0.39481
 Alpha  occ. eigenvalues --   -0.39001  -0.38719  -0.37959  -0.37689  -0.36830
 Alpha  occ. eigenvalues --   -0.36673  -0.36080  -0.35383  -0.34790  -0.34430
 Alpha  occ. eigenvalues --   -0.34031  -0.32366  -0.31750  -0.30809  -0.29084
 Alpha  occ. eigenvalues --   -0.28777  -0.26876  -0.26236  -0.25425
 Alpha virt. eigenvalues --    0.00618   0.01734   0.06437   0.07535   0.08734
 Alpha virt. eigenvalues --    0.09208   0.09745   0.10874   0.11180   0.11705
 Alpha virt. eigenvalues --    0.12179   0.12495   0.13254   0.13581   0.14303

 Mulliken charges:
               1
     1  C    0.179308
     2  C   -0.096916
     3  C    0.309982
     4  C   -0.298862
     5  C    0.589415
     6  H    0.112796
     7  H    0.101773
     8  H    0.149333
     9  H    0.148302
    10  O   -0.486348
    11  O   -0.499721
    12  C   -0.187940
    13  C   -0.328529
    14  C   -0.339797
    15  O   -0.653864
    16  Si   0.917056
    17  C   -0.535118
    18  C   -0.549190
    19  C   -0.557437
    20  H    0.119701
    21  H    0.121761
    22  H    0.119524
    23  H    0.118626
    24  H    0.121319
    25  H    0.122937
    26  H    0.122406
    27  H    0.118686
    28  H    0.120557
    29  H    0.113507
    30  H    0.112416
    31  H    0.132815
    32  H    0.108139
    33  H    0.111509
    34  H    0.107034
    35  H    0.126057
    36  H    0.106862
    37  C   -0.228575
    38  C   -0.033531
    39  C   -0.258441
    40  H    0.106465
    41  H    0.121478
    42  H    0.105825
    43  H    0.104886
    44  H    0.103798
 Sum of Mulliken charges =   0.00000

 Dipole moment (field-independent basis, Debye):
    X=              2.2238    Y=             -3.8528    Z=             -2.7483  Tot=              5.2290
 Quadrupole moment (field-independent basis, Debye-Ang):
   XX=           -118.2097   YY=           -119.1900   ZZ=           -124.8062
   XY=              7.1685   XZ=             11.8403   YZ=             -6.8059

 Normal termination of Gaussian 09 at Wed Feb  6 16:06:36 2019.
