 Gaussian 09, Revision D.01,
 Gaussian 09:  EM64L-G09RevD.01 24-Apr-2013

 ---------------------------------------------------------------
 # b3lyp/6-31g(d,p) Opt=(maxcycles=50) scrf=(solvent=chloroform)
 ---------------------------------------------------------------

 --------------------
 P_ng_correct1ginp007
 --------------------
 Symbolic Z-matrix:
 Charge =  0 Multiplicity = 1

 SCF Done:  E(RB3LYP) =  -1064.42250991     A.U. after   13 cycles
 SCF Done:  E(RB3LYP) =  -1064.42260682     A.U. after    9 cycles
 SCF Done:  E(RB3LYP) =  -1064.42263611     A.U. after    9 cycles
 SCF Done:  E(RB3LYP) =  -1064.42270543     A.U. after    9 cycles
 SCF Done:  E(RB3LYP) =  -1064.42269255     A.U. after   10 cycles
 SCF Done:  E(RB3LYP) =  -1064.42272042     A.U. after    6 cycles
 SCF Done:  E(RB3LYP) =  -1064.42302407     A.U. after   11 cycles
 SCF Done:  E(RB3LYP) =  -1064.41970367     A.U. after   13 cycles
 SCF Done:  E(RB3LYP) =  -1064.42313722     A.U. after   10 cycles
 SCF Done:  E(RB3LYP) =  -1064.41984403     A.U. after   11 cycles
 SCF Done:  E(RB3LYP) =  -1064.42334459     A.U. after   10 cycles
 SCF Done:  E(RB3LYP) =  -1064.42336084     A.U. after    9 cycles
 SCF Done:  E(RB3LYP) =  -1064.42336837     A.U. after    8 cycles
 SCF Done:  E(RB3LYP) =  -1064.42337475     A.U. after    8 cycles
 SCF Done:  E(RB3LYP) =  -1064.42337755     A.U. after    8 cycles
 SCF Done:  E(RB3LYP) =  -1064.42338035     A.U. after    8 cycles
 SCF Done:  E(RB3LYP) =  -1064.42338079     A.U. after    7 cycles
 SCF Done:  E(RB3LYP) =  -1064.42338089     A.U. after    6 cycles
 SCF Done:  E(RB3LYP) =  -1064.42338091     A.U. after    6 cycles
 SCF Done:  E(RB3LYP) =  -1064.42338077     A.U. after    6 cycles
 Optimization completed.
    -- Stationary point found.

                         Standard orientation:
 ---------------------------------------------------------------------
 Center     Atomic      Atomic             Coordinates (Angstroms)
 Number     Number       Type             X           Y           Z
 ---------------------------------------------------------------------
      1          6           0        2.401382    0.141586    0.350229
      2          6           0        1.005188    0.323085    0.963265
      3          6           0       -0.101476    0.039970   -0.092657
      4          6           0        0.091038   -1.429596   -0.503339
      5          6           0        1.494104   -1.778461   -0.961937
      6          1           0        2.608591    0.982648   -0.324117
      7          1           0        0.869765   -0.455821    1.726850
      8          1           0       -0.124280   -2.068795    0.360946
      9          1           0       -0.588235   -1.729002   -1.305446
     10          8           0        2.526224   -1.054107   -0.487078
     11          8           0        1.725679   -2.709838   -1.704652
     12          6           0        3.527256    0.041342    1.382199
     13          6           0        4.923558   -0.074510    0.763204
     14          6           0        0.879731    1.681423    1.669750
     15          8           0       -1.350874    0.226978    0.564145
     16         14           0       -2.920401   -0.352249    0.365523
     17          6           0       -3.934522    0.741181    1.511195
     18          6           0       -3.535471   -0.184530   -1.411600
     19          6           0       -3.064130   -2.152706    0.914619
     20          1           0       -3.465259    0.847450   -1.770961
     21          1           0       -2.987400   -0.824704   -2.110982
     22          1           0       -4.590082   -0.480719   -1.460224
     23          1           0       -2.561252   -2.844493    0.231731
     24          1           0       -2.642131   -2.298034    1.914841
     25          1           0       -4.120395   -2.443820    0.956195
     26          1           0       -3.576485    0.668153    2.543409
     27          1           0       -3.879883    1.792699    1.210913
     28          1           0       -4.989077    0.444007    1.501157
     29          1           0        1.488935    1.706303    2.577060
     30          1           0        1.188667    2.508061    1.025739
     31          1           0       -0.158993    1.846133    1.961305
     32          1           0        3.325789   -0.822046    2.028810
     33          1           0        3.484982    0.930789    2.018936
     34          1           0        5.686947   -0.127166    1.545250
     35          1           0        5.008499   -0.969885    0.142945
     36          1           0        5.149382    0.794133    0.134462
     37          6           0       -0.048861    0.926093   -1.368845
     38          6           0       -0.316103    2.395794   -1.190327
     39          6           0        0.387534    3.369928   -1.770127
     40          1           0       -0.814663    0.519685   -2.043765
     41          1           0        0.908723    0.783885   -1.883160
     42          1           0       -1.175027    2.650365   -0.572324
     43          1           0        0.124737    4.415891   -1.641861
     44          1           0        1.250143    3.157910   -2.398135
 ---------------------------------------------------------------------

 The electronic state is 1-A.
 Alpha  occ. eigenvalues --  -66.14480 -19.18876 -19.13919 -19.13062 -10.31963
 Alpha  occ. eigenvalues --  -10.26236 -10.25286 -10.20085 -10.19937 -10.19302
 Alpha  occ. eigenvalues --  -10.19161 -10.18870 -10.17937 -10.17461 -10.17413
 Alpha  occ. eigenvalues --  -10.16205 -10.16030 -10.15918  -5.28526  -3.64627
 Alpha  occ. eigenvalues --   -3.64328  -3.64316  -1.09585  -1.01334  -1.00705
 Alpha  occ. eigenvalues --   -0.82823  -0.80167  -0.77837  -0.74970  -0.71288
 Alpha  occ. eigenvalues --   -0.70016  -0.69055  -0.67770  -0.67633  -0.64092
 Alpha  occ. eigenvalues --   -0.61352  -0.59398  -0.56436  -0.54027  -0.51016
 Alpha  occ. eigenvalues --   -0.50122  -0.48394  -0.46751  -0.46030  -0.45026
 Alpha  occ. eigenvalues --   -0.44620  -0.43314  -0.42596  -0.42125  -0.41760
 Alpha  occ. eigenvalues --   -0.40798  -0.40644  -0.40188  -0.39659  -0.39311
 Alpha  occ. eigenvalues --   -0.39079  -0.38545  -0.38214  -0.37945  -0.36829
 Alpha  occ. eigenvalues --   -0.36678  -0.36162  -0.35229  -0.34783  -0.34303
 Alpha  occ. eigenvalues --   -0.33952  -0.32425  -0.31563  -0.30487  -0.29155
 Alpha  occ. eigenvalues --   -0.28518  -0.27647  -0.26238  -0.25108
 Alpha virt. eigenvalues --    0.00744   0.01428   0.06267   0.07356   0.08566
 Alpha virt. eigenvalues --    0.09342   0.09772   0.10410   0.11364   0.11681
 Alpha virt. eigenvalues --    0.12039   0.12611   0.13590   0.14042   0.14278

 Mulliken charges:
               1
     1  C    0.174627
     2  C   -0.090724
     3  C    0.308448
     4  C   -0.307770
     5  C    0.592113
     6  H    0.114592
     7  H    0.102246
     8  H    0.158637
     9  H    0.140090
    10  O   -0.486107
    11  O   -0.499649
    12  C   -0.186956
    13  C   -0.328466
    14  C   -0.337972
    15  O   -0.649968
    16  Si   0.909815
    17  C   -0.535352
    18  C   -0.555597
    19  C   -0.549231
    20  H    0.122985
    21  H    0.121027
    22  H    0.122558
    23  H    0.119879
    24  H    0.120881
    25  H    0.121294
    26  H    0.122122
    27  H    0.120574
    28  H    0.119081
    29  H    0.108209
    30  H    0.115826
    31  H    0.127838
    32  H    0.107500
    33  H    0.112625
    34  H    0.106670
    35  H    0.125522
    36  H    0.106418
    37  C   -0.229652
    38  C   -0.020050
    39  C   -0.267431
    40  H    0.122785
    41  H    0.109172
    42  H    0.105866
    43  H    0.104682
    44  H    0.100842
 Sum of Mulliken charges =   0.00000

 Dipole moment (field-independent basis, Debye):
    X=             -2.4427    Y=              2.9946    Z=              2.4767  Tot=              4.5901
 Quadrupole moment (field-independent basis, Debye-Ang):
   XX=           -115.0588   YY=           -126.8003   ZZ=           -121.0934
   XY=             11.1779   XZ=              7.6485   YZ=             -8.4058

 Normal termination of Gaussian 09 at Thu Feb  7 12:04:24 2019.
