 Gaussian 09, Revision D.01,
 Gaussian 09:  ES64L-G09RevD.01 24-Apr-2013

 ---------------------------------------------------------------
 # b3lyp/6-31g(d,p) Opt=(maxcycles=25) scrf=(solvent=chloroform)
 ---------------------------------------------------------------

 --------------------
 P_ng_correct1ginp006
 --------------------
 Symbolic Z-matrix:
 Charge =  0 Multiplicity = 1

 SCF Done:  E(RB3LYP) =  -1064.41574053     A.U. after   13 cycles
 SCF Done:  E(RB3LYP) =  -1064.42213765     A.U. after   10 cycles
 SCF Done:  E(RB3LYP) =  -1064.42283256     A.U. after   10 cycles
 SCF Done:  E(RB3LYP) =  -1064.42275993     A.U. after   10 cycles
 SCF Done:  E(RB3LYP) =  -1064.42315965     A.U. after   10 cycles
 SCF Done:  E(RB3LYP) =  -1064.42320428     A.U. after    9 cycles
 SCF Done:  E(RB3LYP) =  -1064.42323399     A.U. after    9 cycles
 SCF Done:  E(RB3LYP) =  -1064.42324405     A.U. after    8 cycles
 SCF Done:  E(RB3LYP) =  -1064.42325429     A.U. after    8 cycles
 SCF Done:  E(RB3LYP) =  -1064.42326005     A.U. after    8 cycles
 SCF Done:  E(RB3LYP) =  -1064.42326431     A.U. after    8 cycles
 SCF Done:  E(RB3LYP) =  -1064.42326675     A.U. after    8 cycles
 SCF Done:  E(RB3LYP) =  -1064.42326810     A.U. after    7 cycles
 SCF Done:  E(RB3LYP) =  -1064.42326831     A.U. after    6 cycles
 SCF Done:  E(RB3LYP) =  -1064.42326844     A.U. after    6 cycles
 Optimization completed.
    -- Stationary point found.

                         Standard orientation:
 ---------------------------------------------------------------------
 Center     Atomic      Atomic             Coordinates (Angstroms)
 Number     Number       Type             X           Y           Z
 ---------------------------------------------------------------------
      1          6           0       -2.356733    0.415705    0.118469
      2          6           0       -1.182054    0.203736   -0.853124
      3          6           0        0.126236    0.840953   -0.268684
      4          6           0        0.029576    0.887458    1.284568
      5          6           0       -0.834184   -0.187755    1.896119
      6          1           0       -2.449982    1.481178    0.370862
      7          1           0       -0.997991   -0.875664   -0.859849
      8          1           0        1.018973    0.859848    1.737118
      9          1           0       -0.422659    1.844449    1.573735
     10          8           0       -2.064883   -0.314514    1.351941
     11          8           0       -0.518626   -0.891573    2.834397
     12          6           0       -3.728324   -0.087456   -0.337063
     13          6           0       -3.801644   -1.582960   -0.662666
     14          6           0       -1.492197    0.625125   -2.294953
     15          8           0        1.249373    0.082506   -0.712290
     16         14           0        2.010860   -1.362388   -0.293222
     17          6           0        2.819721   -1.256914    1.407146
     18          6           0        0.837014   -2.841171   -0.324583
     19          6           0        3.319948   -1.560870   -1.629412
     20          1           0        1.410354   -3.756880   -0.135897
     21          1           0        0.062315   -2.781829    0.446562
     22          1           0        0.345950   -2.955775   -1.296782
     23          1           0        3.909102   -2.469567   -1.462157
     24          1           0        2.864988   -1.634871   -2.622627
     25          1           0        4.010998   -0.711572   -1.639074
     26          1           0        3.464121   -0.375552    1.495161
     27          1           0        2.077220   -1.223864    2.210490
     28          1           0        3.445899   -2.142119    1.570595
     29          1           0       -1.820331    1.666681   -2.365477
     30          1           0       -0.604307    0.505647   -2.921694
     31          1           0       -2.279703   -0.000357   -2.721911
     32          1           0       -4.037753    0.510442   -1.201141
     33          1           0       -4.438048    0.144651    0.465167
     34          1           0       -3.161218   -1.854491   -1.507654
     35          1           0       -3.496442   -2.184268    0.197681
     36          1           0       -4.826557   -1.862616   -0.923749
     37          6           0        0.367633    2.283028   -0.788743
     38          6           0        1.551915    2.967962   -0.164887
     39          6           0        1.505695    4.134885    0.479826
     40          1           0       -0.535254    2.883958   -0.627244
     41          1           0        0.527564    2.215570   -1.870355
     42          1           0        2.505853    2.454909   -0.275658
     43          1           0        2.398284    4.591615    0.897417
     44          1           0        0.574057    4.682188    0.607136
 ---------------------------------------------------------------------

 The electronic state is 1-A.
 Alpha  occ. eigenvalues --  -66.14180 -19.18986 -19.13671 -19.13546 -10.31791
 Alpha  occ. eigenvalues --  -10.26526 -10.25424 -10.20048 -10.19948 -10.19143
 Alpha  occ. eigenvalues --  -10.19048 -10.18993 -10.18309 -10.18031 -10.17652
 Alpha  occ. eigenvalues --  -10.15827 -10.15720 -10.15484  -5.28220  -3.64324
 Alpha  occ. eigenvalues --   -3.64023  -3.64006  -1.09881  -1.01664  -1.00403
 Alpha  occ. eigenvalues --   -0.82802  -0.80293  -0.77436  -0.74888  -0.71230
 Alpha  occ. eigenvalues --   -0.69859  -0.69679  -0.67487  -0.67288  -0.64705
 Alpha  occ. eigenvalues --   -0.60345  -0.59652  -0.56118  -0.53769  -0.52305
 Alpha  occ. eigenvalues --   -0.50132  -0.48875  -0.46944  -0.46174  -0.44228
 Alpha  occ. eigenvalues --   -0.43855  -0.43447  -0.42868  -0.42373  -0.41058
 Alpha  occ. eigenvalues --   -0.40925  -0.40649  -0.40333  -0.40092  -0.39103
 Alpha  occ. eigenvalues --   -0.38910  -0.38486  -0.37904  -0.37568  -0.37146
 Alpha  occ. eigenvalues --   -0.36523  -0.36222  -0.35900  -0.34885  -0.34430
 Alpha  occ. eigenvalues --   -0.33584  -0.33353  -0.31468  -0.30610  -0.29250
 Alpha  occ. eigenvalues --   -0.28324  -0.26787  -0.26510  -0.25416
 Alpha virt. eigenvalues --    0.00398   0.01625   0.06589   0.07520   0.08466
 Alpha virt. eigenvalues --    0.08930   0.09878   0.10525   0.11109   0.12416
 Alpha virt. eigenvalues --    0.12780   0.12934   0.13521   0.13855   0.14456

 Mulliken charges:
               1
     1  C    0.158625
     2  C   -0.090380
     3  C    0.297155
     4  C   -0.298258
     5  C    0.605240
     6  H    0.107182
     7  H    0.121850
     8  H    0.147145
     9  H    0.150653
    10  O   -0.476493
    11  O   -0.507211
    12  C   -0.198069
    13  C   -0.331221
    14  C   -0.343825
    15  O   -0.631948
    16  Si   0.900183
    17  C   -0.563301
    18  C   -0.559770
    19  C   -0.531894
    20  H    0.121474
    21  H    0.127527
    22  H    0.117712
    23  H    0.118004
    24  H    0.120142
    25  H    0.120627
    26  H    0.116648
    27  H    0.134972
    28  H    0.118289
    29  H    0.115684
    30  H    0.126604
    31  H    0.114878
    32  H    0.112328
    33  H    0.114905
    34  H    0.110916
    35  H    0.126046
    36  H    0.110066
    37  C   -0.219860
    38  C   -0.035882
    39  C   -0.259806
    40  H    0.099563
    41  H    0.123110
    42  H    0.106093
    43  H    0.105691
    44  H    0.098607
 Sum of Mulliken charges =   0.00000

 Dipole moment (field-independent basis, Debye):
    X=             -1.0031    Y=              2.2211    Z=             -3.7256  Tot=              4.4520
 Quadrupole moment (field-independent basis, Debye-Ang):
   XX=           -111.2145   YY=           -115.1411   ZZ=           -129.9079
   XY=             -5.5080   XZ=              6.0728   YZ=              7.4996

 Normal termination of Gaussian 09 at Wed Feb  6 11:12:10 2019.
