 Gaussian 09, Revision D.01,
 Gaussian 09:  ES64L-G09RevD.01 24-Apr-2013

 ---------------------------------------------------------------
 # b3lyp/6-31g(d,p) Opt=(maxcycles=25) scrf=(solvent=chloroform)
 ---------------------------------------------------------------

 --------------------
 P_ng_correct1ginp011
 --------------------
 Symbolic Z-matrix:
 Charge =  0 Multiplicity = 1

 SCF Done:  E(RB3LYP) =  -1064.41517289     A.U. after   13 cycles
 SCF Done:  E(RB3LYP) =  -1064.42072071     A.U. after   11 cycles
 SCF Done:  E(RB3LYP) =  -1064.42136535     A.U. after   10 cycles
 SCF Done:  E(RB3LYP) =  -1064.42119958     A.U. after   10 cycles
 SCF Done:  E(RB3LYP) =  -1064.42163053     A.U. after   10 cycles
 SCF Done:  E(RB3LYP) =  -1064.42168216     A.U. after    9 cycles
 SCF Done:  E(RB3LYP) =  -1064.42172448     A.U. after    9 cycles
 SCF Done:  E(RB3LYP) =  -1064.42174601     A.U. after    8 cycles
 SCF Done:  E(RB3LYP) =  -1064.42175620     A.U. after    8 cycles
 SCF Done:  E(RB3LYP) =  -1064.42176068     A.U. after    8 cycles
 SCF Done:  E(RB3LYP) =  -1064.42176338     A.U. after    8 cycles
 SCF Done:  E(RB3LYP) =  -1064.42176490     A.U. after    7 cycles
 SCF Done:  E(RB3LYP) =  -1064.42176550     A.U. after    7 cycles
 SCF Done:  E(RB3LYP) =  -1064.42176584     A.U. after    7 cycles
 SCF Done:  E(RB3LYP) =  -1064.42176600     A.U. after    6 cycles
 SCF Done:  E(RB3LYP) =  -1064.42176613     A.U. after    7 cycles
 SCF Done:  E(RB3LYP) =  -1064.42176615     A.U. after    7 cycles
 SCF Done:  E(RB3LYP) =  -1064.42176616     A.U. after    6 cycles
 SCF Done:  E(RB3LYP) =  -1064.42176615     A.U. after    5 cycles
 SCF Done:  E(RB3LYP) =  -1064.42176614     A.U. after    5 cycles
 Optimization completed.
    -- Stationary point found.

                         Standard orientation:
 ---------------------------------------------------------------------
 Center     Atomic      Atomic             Coordinates (Angstroms)
 Number     Number       Type             X           Y           Z
 ---------------------------------------------------------------------
      1          6           0        2.466611    0.389048    0.070247
      2          6           0        1.134383    0.325576    0.825763
      3          6           0       -0.027489   -0.009585   -0.152912
      4          6           0        0.302249   -1.404543   -0.715606
      5          6           0        1.706875   -1.567350   -1.268200
      6          1           0        2.455583    1.265143   -0.589595
      7          1           0        1.168014   -0.531063    1.510757
      8          1           0        0.196515   -2.136783    0.093825
      9          1           0       -0.385023   -1.704845   -1.508693
     10          8           0        2.685465   -0.759305   -0.812743
     11          8           0        1.990992   -2.431668   -2.071639
     12          6           0        3.723711    0.472626    0.944033
     13          6           0        3.901676   -0.671686    1.946347
     14          6           0        0.924273    1.582474    1.682778
     15          8           0       -1.208632   -0.073484    0.640281
     16         14           0       -2.831128   -0.464915    0.413823
     17          6           0       -3.091900   -1.935532   -0.740815
     18          6           0       -3.431380   -0.891700    2.144581
     19          6           0       -3.798921    1.012482   -0.250394
     20          1           0       -2.909629   -1.769935    2.538838
     21          1           0       -3.261746   -0.061634    2.838293
     22          1           0       -4.504848   -1.111405    2.142185
     23          1           0       -4.865985    0.765274   -0.299637
     24          1           0       -3.692578    1.886954    0.400283
     25          1           0       -3.482111    1.302283   -1.257316
     26          1           0       -2.794196   -1.720483   -1.772470
     27          1           0       -2.547571   -2.824961   -0.408148
     28          1           0       -4.158627   -2.189110   -0.758658
     29          1           0        1.074617    2.501440    1.111622
     30          1           0       -0.091831    1.588778    2.081332
     31          1           0        1.615993    1.590707    2.530011
     32          1           0        3.713537    1.436913    1.463232
     33          1           0        4.582054    0.499963    0.263595
     34          1           0        3.876974   -1.642064    1.441638
     35          1           0        4.866821   -0.583772    2.453896
     36          1           0        3.124881   -0.669523    2.717436
     37          6           0       -0.209878    0.973118   -1.341931
     38          6           0       -0.509573    2.410893   -1.014364
     39          6           0        0.066377    3.455765   -1.611966
     40          1           0       -1.041147    0.568389   -1.937758
     41          1           0        0.667913    0.925147   -1.997123
     42          1           0       -1.278482    2.583671   -0.264677
     43          1           0       -0.213167    4.476382   -1.367767
     44          1           0        0.835141    3.329489   -2.371179
 ---------------------------------------------------------------------

 The electronic state is 1-A.
 Alpha  occ. eigenvalues --  -66.14487 -19.18825 -19.13885 -19.12969 -10.31833
 Alpha  occ. eigenvalues --  -10.26245 -10.25195 -10.19860 -10.19810 -10.19573
 Alpha  occ. eigenvalues --  -10.19319 -10.18865 -10.18117 -10.17618 -10.17509
 Alpha  occ. eigenvalues --  -10.16198 -10.16003 -10.15877  -5.28521  -3.64622
 Alpha  occ. eigenvalues --   -3.64326  -3.64310  -1.09493  -1.01242  -1.00628
 Alpha  occ. eigenvalues --   -0.82871  -0.80140  -0.77849  -0.74734  -0.71253
 Alpha  occ. eigenvalues --   -0.70260  -0.69308  -0.67777  -0.67601  -0.64508
 Alpha  occ. eigenvalues --   -0.60371  -0.60045  -0.56564  -0.53509  -0.50754
 Alpha  occ. eigenvalues --   -0.50236  -0.48807  -0.46941  -0.46170  -0.44848
 Alpha  occ. eigenvalues --   -0.44299  -0.43447  -0.42768  -0.42138  -0.41844
 Alpha  occ. eigenvalues --   -0.40866  -0.40533  -0.40408  -0.39662  -0.39114
 Alpha  occ. eigenvalues --   -0.38911  -0.38750  -0.38246  -0.37976  -0.37209
 Alpha  occ. eigenvalues --   -0.36161  -0.35950  -0.35578  -0.34749  -0.34604
 Alpha  occ. eigenvalues --   -0.33764  -0.32469  -0.31618  -0.30411  -0.29115
 Alpha  occ. eigenvalues --   -0.28290  -0.27800  -0.26112  -0.25270
 Alpha virt. eigenvalues --    0.00703   0.01240   0.06213   0.07350   0.08539
 Alpha virt. eigenvalues --    0.08987   0.09537   0.10152   0.11346   0.11733
 Alpha virt. eigenvalues --    0.12716   0.12900   0.13429   0.13860   0.14421

 Mulliken charges:
               1
     1  C    0.167224
     2  C   -0.090637
     3  C    0.305916
     4  C   -0.293352
     5  C    0.593544
     6  H    0.115266
     7  H    0.106456
     8  H    0.156367
     9  H    0.137449
    10  O   -0.487208
    11  O   -0.501536
    12  C   -0.190698
    13  C   -0.332516
    14  C   -0.341274
    15  O   -0.643177
    16  Si   0.900697
    17  C   -0.555711
    18  C   -0.531553
    19  C   -0.549570
    20  H    0.120889
    21  H    0.122009
    22  H    0.118282
    23  H    0.120523
    24  H    0.120838
    25  H    0.119758
    26  H    0.120451
    27  H    0.123325
    28  H    0.123216
    29  H    0.115384
    30  H    0.127948
    31  H    0.109661
    32  H    0.111594
    33  H    0.114579
    34  H    0.119591
    35  H    0.110718
    36  H    0.111715
    37  C   -0.237459
    38  C   -0.017409
    39  C   -0.267484
    40  H    0.123275
    41  H    0.109301
    42  H    0.104981
    43  H    0.106234
    44  H    0.102391
 Sum of Mulliken charges =   0.00000

 Dipole moment (field-independent basis, Debye):
    X=             -2.7020    Y=              3.0723    Z=              2.6297  Tot=              4.8637
 Quadrupole moment (field-independent basis, Debye-Ang):
   XX=           -116.6247   YY=           -123.4957   ZZ=           -123.6263
   XY=             11.0992   XZ=              9.4720   YZ=             -8.4758

 Normal termination of Gaussian 09 at Wed Feb  6 11:26:47 2019.
