 Gaussian 09, Revision D.01,
 Gaussian 09:  ES64L-G09RevD.01 24-Apr-2013

 ---------------------------------------------------------------
 # b3lyp/6-31g(d,p) Opt=(maxcycles=25) scrf=(solvent=chloroform)
 ---------------------------------------------------------------

 -------------
 P_ng_2ginp016
 -------------
 Symbolic Z-matrix:
 Charge =  0 Multiplicity = 1

 SCF Done:  E(RB3LYP) =  -1064.41526346     A.U. after   13 cycles
 SCF Done:  E(RB3LYP) =  -1064.42072281     A.U. after   10 cycles
 SCF Done:  E(RB3LYP) =  -1064.42150160     A.U. after   10 cycles
 SCF Done:  E(RB3LYP) =  -1064.42146199     A.U. after   10 cycles
 SCF Done:  E(RB3LYP) =  -1064.42185868     A.U. after    9 cycles
 SCF Done:  E(RB3LYP) =  -1064.42195624     A.U. after    9 cycles
 SCF Done:  E(RB3LYP) =  -1064.42197603     A.U. after    9 cycles
 SCF Done:  E(RB3LYP) =  -1064.42201799     A.U. after    9 cycles
 SCF Done:  E(RB3LYP) =  -1064.42203205     A.U. after    8 cycles
 SCF Done:  E(RB3LYP) =  -1064.42204457     A.U. after    8 cycles
 SCF Done:  E(RB3LYP) =  -1064.42204668     A.U. after    7 cycles
 SCF Done:  E(RB3LYP) =  -1064.42204890     A.U. after    7 cycles
 SCF Done:  E(RB3LYP) =  -1064.42204960     A.U. after    7 cycles
 SCF Done:  E(RB3LYP) =  -1064.42205028     A.U. after    7 cycles
 SCF Done:  E(RB3LYP) =  -1064.42205068     A.U. after    7 cycles
 SCF Done:  E(RB3LYP) =  -1064.42205096     A.U. after    7 cycles
 SCF Done:  E(RB3LYP) =  -1064.42205101     A.U. after    6 cycles
 Optimization completed.
    -- Stationary point found.

                         Standard orientation:
 ---------------------------------------------------------------------
 Center     Atomic      Atomic             Coordinates (Angstroms)
 Number     Number       Type             X           Y           Z
 ---------------------------------------------------------------------
      1          6           0       -2.306276    0.026995   -0.403372
      2          6           0       -0.826266    0.062418   -0.808665
      3          6           0        0.057813    0.438912    0.415204
      4          6           0       -0.163274   -0.677266    1.451095
      5          6           0       -1.617779   -0.965902    1.776996
      6          1           0       -2.638301    1.053533   -0.205944
      7          1           0       -0.522220   -0.957973   -1.073881
      8          1           0        0.247707   -1.618809    1.067469
      9          1           0        0.347168   -0.465175    2.393206
     10          8           0       -2.553700   -0.704520    0.841935
     11          8           0       -1.962399   -1.474964    2.823031
     12          6           0       -3.264902   -0.588935   -1.429465
     13          6           0       -2.951736   -2.032103   -1.835466
     14          6           0       -0.622905    0.938957   -2.052889
     15          8           0        1.423817    0.521271    0.023150
     16         14           0        2.698461   -0.556730   -0.199588
     17          6           0        2.214662   -2.031870   -1.275838
     18          6           0        4.001424    0.480162   -1.073213
     19          6           0        3.370828   -1.162577    1.456172
     20          1           0        4.912182   -0.103545   -1.247469
     21          1           0        3.641864    0.838135   -2.043498
     22          1           0        4.274410    1.354519   -0.473279
     23          1           0        4.287831   -1.742532    1.299064
     24          1           0        3.619729   -0.319968    2.110119
     25          1           0        2.663532   -1.804604    1.990200
     26          1           0        3.102107   -2.642790   -1.479446
     27          1           0        1.475412   -2.685259   -0.800261
     28          1           0        1.808468   -1.707779   -2.239688
     29          1           0        0.443627    1.078495   -2.240597
     30          1           0       -1.059990    0.463135   -2.935368
     31          1           0       -1.075182    1.926538   -1.936302
     32          1           0       -3.283990    0.060616   -2.311166
     33          1           0       -4.268745   -0.541933   -0.992931
     34          1           0       -3.741746   -2.423289   -2.483245
     35          1           0       -2.008805   -2.111599   -2.385727
     36          1           0       -2.888556   -2.681231   -0.956986
     37          6           0       -0.275133    1.797809    1.091794
     38          6           0       -0.040050    3.039299    0.276099
     39          6           0       -0.887933    4.066356    0.195140
     40          1           0        0.377132    1.842523    1.975215
     41          1           0       -1.303554    1.789871    1.470360
     42          1           0        0.917659    3.089854   -0.237917
     43          1           0       -0.647681    4.958996   -0.375090
     44          1           0       -1.851097    4.056665    0.700928
 ---------------------------------------------------------------------

 The electronic state is 1-A.
 Alpha  occ. eigenvalues --  -66.14504 -19.18929 -19.13868 -19.13127 -10.31994
 Alpha  occ. eigenvalues --  -10.26248 -10.25333 -10.20165 -10.19986 -10.19160
 Alpha  occ. eigenvalues --  -10.19001 -10.18957 -10.17826 -10.17731 -10.17686
 Alpha  occ. eigenvalues --  -10.16318 -10.16004 -10.15935  -5.28551  -3.64651
 Alpha  occ. eigenvalues --   -3.64354  -3.64339  -1.09604  -1.01380  -1.00672
 Alpha  occ. eigenvalues --   -0.82892  -0.80168  -0.77704  -0.74913  -0.71463
 Alpha  occ. eigenvalues --   -0.70118  -0.69253  -0.67886  -0.67629  -0.64437
 Alpha  occ. eigenvalues --   -0.60425  -0.60065  -0.56229  -0.53879  -0.50942
 Alpha  occ. eigenvalues --   -0.50734  -0.48485  -0.47019  -0.46006  -0.45017
 Alpha  occ. eigenvalues --   -0.44188  -0.43398  -0.42657  -0.42231  -0.41577
 Alpha  occ. eigenvalues --   -0.40960  -0.40773  -0.40095  -0.39636  -0.39356
 Alpha  occ. eigenvalues --   -0.39002  -0.38842  -0.38392  -0.37985  -0.37084
 Alpha  occ. eigenvalues --   -0.36208  -0.36113  -0.35647  -0.34831  -0.34650
 Alpha  occ. eigenvalues --   -0.33865  -0.32450  -0.31517  -0.30835  -0.29203
 Alpha  occ. eigenvalues --   -0.28785  -0.27112  -0.26249  -0.25126
 Alpha virt. eigenvalues --    0.00514   0.01598   0.06123   0.07198   0.08462
 Alpha virt. eigenvalues --    0.09043   0.09146   0.10932   0.11450   0.11816
 Alpha virt. eigenvalues --    0.12597   0.13188   0.13478   0.13524   0.14307

 Mulliken charges:
               1
     1  C    0.167622
     2  C   -0.090309
     3  C    0.309700
     4  C   -0.304043
     5  C    0.591024
     6  H    0.116546
     7  H    0.103206
     8  H    0.151122
     9  H    0.144220
    10  O   -0.485907
    11  O   -0.499024
    12  C   -0.191025
    13  C   -0.332692
    14  C   -0.339548
    15  O   -0.651637
    16  Si   0.913189
    17  C   -0.559211
    18  C   -0.535813
    19  C   -0.547003
    20  H    0.119082
    21  H    0.120405
    22  H    0.123137
    23  H    0.120545
    24  H    0.122058
    25  H    0.119036
    26  H    0.123413
    27  H    0.119408
    28  H    0.121991
    29  H    0.126726
    30  H    0.109592
    31  H    0.118188
    32  H    0.112007
    33  H    0.115707
    34  H    0.111587
    35  H    0.110692
    36  H    0.119377
    37  C   -0.224348
    38  C   -0.021760
    39  C   -0.266096
    40  H    0.124433
    41  H    0.105560
    42  H    0.105497
    43  H    0.103835
    44  H    0.099509
 Sum of Mulliken charges =   0.00000

 Dipole moment (field-independent basis, Debye):
    X=              2.4810    Y=              0.9353    Z=             -4.1680  Tot=              4.9399
 Quadrupole moment (field-independent basis, Debye-Ang):
   XX=           -118.4388   YY=           -119.3825   ZZ=           -127.3733
   XY=             -8.6266   XZ=             11.2697   YZ=              6.9798

 Normal termination of Gaussian 09 at Wed Feb  6 11:18:48 2019.
