 Gaussian 09, Revision D.01,
 Gaussian 09:  ES64L-G09RevD.01 24-Apr-2013

 ---------------------------------------------------------------
 # b3lyp/6-31g(d,p) Opt=(maxcycles=25) scrf=(solvent=chloroform)
 ---------------------------------------------------------------

 --------------------
 P_ng_correct1ginp004
 --------------------
 Symbolic Z-matrix:
 Charge =  0 Multiplicity = 1

 SCF Done:  E(RB3LYP) =  -1064.41615248     A.U. after   13 cycles
 SCF Done:  E(RB3LYP) =  -1064.42171472     A.U. after   11 cycles
 SCF Done:  E(RB3LYP) =  -1064.42241787     A.U. after   10 cycles
 SCF Done:  E(RB3LYP) =  -1064.42241012     A.U. after   10 cycles
 SCF Done:  E(RB3LYP) =  -1064.42265724     A.U. after    9 cycles
 SCF Done:  E(RB3LYP) =  -1064.42270641     A.U. after    9 cycles
 SCF Done:  E(RB3LYP) =  -1064.42273668     A.U. after    9 cycles
 SCF Done:  E(RB3LYP) =  -1064.42275857     A.U. after    8 cycles
 SCF Done:  E(RB3LYP) =  -1064.42276993     A.U. after    8 cycles
 SCF Done:  E(RB3LYP) =  -1064.42277711     A.U. after    8 cycles
 SCF Done:  E(RB3LYP) =  -1064.42277981     A.U. after    8 cycles
 SCF Done:  E(RB3LYP) =  -1064.42278091     A.U. after    7 cycles
 SCF Done:  E(RB3LYP) =  -1064.42278188     A.U. after    7 cycles
 SCF Done:  E(RB3LYP) =  -1064.42278284     A.U. after    7 cycles
 SCF Done:  E(RB3LYP) =  -1064.42278369     A.U. after    7 cycles
 SCF Done:  E(RB3LYP) =  -1064.42278443     A.U. after    7 cycles
 SCF Done:  E(RB3LYP) =  -1064.42278471     A.U. after    7 cycles
 Optimization completed.
    -- Stationary point found.

                         Standard orientation:
 ---------------------------------------------------------------------
 Center     Atomic      Atomic             Coordinates (Angstroms)
 Number     Number       Type             X           Y           Z
 ---------------------------------------------------------------------
      1          6           0        2.473658    0.310613    0.101338
      2          6           0        1.128531    0.296601    0.838034
      3          6           0       -0.039990    0.118997   -0.172302
      4          6           0        0.192908   -1.252929   -0.829196
      5          6           0        1.581546   -1.461170   -1.405867
      6          1           0        2.544608    1.236224   -0.482813
      7          1           0        1.088916   -0.603470    1.464845
      8          1           0        0.052906   -2.032459   -0.071151
      9          1           0       -0.519018   -1.453694   -1.633938
     10          8           0        2.612523   -0.772591   -0.876514
     11          8           0        1.805126   -2.262715   -2.289238
     12          6           0        3.720885    0.218467    0.988053
     13          6           0        3.789213   -1.010903    1.898908
     14          6           0        1.000989    1.507308    1.774177
     15          8           0       -1.244405    0.121486    0.588412
     16         14           0       -2.793446   -0.513420    0.394002
     17          6           0       -3.524341   -0.131960   -1.304307
     18          6           0       -2.809832   -2.378571    0.682989
     19          6           0       -3.790425    0.345947    1.737010
     20          1           0       -2.296428   -2.933193   -0.108685
     21          1           0       -2.337967   -2.636386    1.637232
     22          1           0       -3.844444   -2.739916    0.717417
     23          1           0       -3.808219    1.430427    1.587065
     24          1           0       -4.826989   -0.009119    1.739725
     25          1           0       -3.367942    0.151397    2.728280
     26          1           0       -3.530766    0.943025   -1.512378
     27          1           0       -2.986697   -0.631283   -2.117219
     28          1           0       -4.562834   -0.481992   -1.339979
     29          1           0        1.697952    1.419274    2.612295
     30          1           0        1.202248    2.449369    1.258895
     31          1           0       -0.010547    1.551070    2.181737
     32          1           0        3.784384    1.136846    1.581433
     33          1           0        4.587530    0.226365    0.317759
     34          1           0        3.684974   -1.933753    1.320518
     35          1           0        4.753438   -1.047271    2.414454
     36          1           0        3.008293   -0.999796    2.665739
     37          6           0       -0.130455    1.198580   -1.287139
     38          6           0       -0.439619    2.604162   -0.848940
     39          6           0        0.171108    3.695442   -1.314083
     40          1           0       -0.932218    0.865346   -1.959806
     41          1           0        0.784455    1.192170   -1.890755
     42          1           0       -1.250321    2.709847   -0.130453
     43          1           0       -0.121306    4.691290   -0.994188
     44          1           0        0.983223    3.634613   -2.035381
 ---------------------------------------------------------------------

 The electronic state is 1-A.
 Alpha  occ. eigenvalues --  -66.14473 -19.18892 -19.13909 -19.13076 -10.31952
 Alpha  occ. eigenvalues --  -10.26223 -10.25253 -10.20093 -10.19845 -10.19305
 Alpha  occ. eigenvalues --  -10.19173 -10.18898 -10.17955 -10.17654 -10.17490
 Alpha  occ. eigenvalues --  -10.16212 -10.16026 -10.15927  -5.28521  -3.64621
 Alpha  occ. eigenvalues --   -3.64324  -3.64310  -1.09563  -1.01331  -1.00669
 Alpha  occ. eigenvalues --   -0.82861  -0.80126  -0.77798  -0.74801  -0.71282
 Alpha  occ. eigenvalues --   -0.70220  -0.69301  -0.67777  -0.67639  -0.64478
 Alpha  occ. eigenvalues --   -0.60398  -0.59995  -0.56410  -0.53560  -0.50984
 Alpha  occ. eigenvalues --   -0.50234  -0.48770  -0.46981  -0.46112  -0.44908
 Alpha  occ. eigenvalues --   -0.44282  -0.43347  -0.42712  -0.42178  -0.41759
 Alpha  occ. eigenvalues --   -0.40826  -0.40612  -0.40434  -0.39899  -0.39275
 Alpha  occ. eigenvalues --   -0.38854  -0.38578  -0.38333  -0.37948  -0.37048
 Alpha  occ. eigenvalues --   -0.36134  -0.35988  -0.35628  -0.34799  -0.34619
 Alpha  occ. eigenvalues --   -0.33833  -0.32438  -0.31579  -0.30467  -0.29178
 Alpha  occ. eigenvalues --   -0.28514  -0.27647  -0.26222  -0.25124
 Alpha virt. eigenvalues --    0.00674   0.01418   0.06249   0.07281   0.08420
 Alpha virt. eigenvalues --    0.09090   0.09442   0.10341   0.11299   0.11900
 Alpha virt. eigenvalues --    0.12460   0.13020   0.13636   0.13951   0.14180

 Mulliken charges:
               1
     1  C    0.167543
     2  C   -0.090540
     3  C    0.310295
     4  C   -0.308517
     5  C    0.592774
     6  H    0.115517
     7  H    0.105572
     8  H    0.159700
     9  H    0.139842
    10  O   -0.486567
    11  O   -0.499716
    12  C   -0.190824
    13  C   -0.332641
    14  C   -0.338816
    15  O   -0.651006
    16  Si   0.910307
    17  C   -0.556182
    18  C   -0.548865
    19  C   -0.535356
    20  H    0.120050
    21  H    0.120855
    22  H    0.121096
    23  H    0.120590
    24  H    0.119216
    25  H    0.122197
    26  H    0.123066
    27  H    0.121015
    28  H    0.122579
    29  H    0.108972
    30  H    0.115811
    31  H    0.127176
    32  H    0.111908
    33  H    0.115067
    34  H    0.119274
    35  H    0.111100
    36  H    0.111714
    37  C   -0.229228
    38  C   -0.019992
    39  C   -0.267492
    40  H    0.122668
    41  H    0.108146
    42  H    0.106027
    43  H    0.104837
    44  H    0.100830
 Sum of Mulliken charges =   0.00000

 Dipole moment (field-independent basis, Debye):
    X=             -2.3810    Y=              2.5259    Z=              3.0127  Tot=              4.5963
 Quadrupole moment (field-independent basis, Debye-Ang):
   XX=           -115.0564   YY=           -122.8946   ZZ=           -125.2083
   XY=             10.1157   XZ=              9.6431   YZ=             -8.9533

 Normal termination of Gaussian 09 at Wed Feb  6 11:18:29 2019.
