 Gaussian 09, Revision D.01,
 Gaussian 09:  ES64L-G09RevD.01 24-Apr-2013

 ---------------------------------------------------------------
 # b3lyp/6-31g(d,p) Opt=(maxcycles=25) scrf=(solvent=chloroform)
 ---------------------------------------------------------------

 -------------
 P_ng_3ginp007
 -------------
 Symbolic Z-matrix:
 Charge =  0 Multiplicity = 1

 SCF Done:  E(RB3LYP) =  -1064.41548851     A.U. after   13 cycles
 SCF Done:  E(RB3LYP) =  -1064.42096040     A.U. after   10 cycles
 SCF Done:  E(RB3LYP) =  -1064.42168362     A.U. after   10 cycles
 SCF Done:  E(RB3LYP) =  -1064.42169470     A.U. after   10 cycles
 SCF Done:  E(RB3LYP) =  -1064.42206217     A.U. after    9 cycles
 SCF Done:  E(RB3LYP) =  -1064.42217730     A.U. after    9 cycles
 SCF Done:  E(RB3LYP) =  -1064.42221354     A.U. after    9 cycles
 SCF Done:  E(RB3LYP) =  -1064.42222878     A.U. after    9 cycles
 SCF Done:  E(RB3LYP) =  -1064.42223694     A.U. after    8 cycles
 SCF Done:  E(RB3LYP) =  -1064.42224103     A.U. after    8 cycles
 SCF Done:  E(RB3LYP) =  -1064.42224291     A.U. after    8 cycles
 SCF Done:  E(RB3LYP) =  -1064.42224329     A.U. after    7 cycles
 SCF Done:  E(RB3LYP) =  -1064.42224344     A.U. after    7 cycles
 SCF Done:  E(RB3LYP) =  -1064.42224347     A.U. after    6 cycles
 SCF Done:  E(RB3LYP) =  -1064.42224340     A.U. after    6 cycles
 SCF Done:  E(RB3LYP) =  -1064.42224328     A.U. after    7 cycles
 SCF Done:  E(RB3LYP) =  -1064.42224309     A.U. after    6 cycles
 SCF Done:  E(RB3LYP) =  -1064.42224303     A.U. after    5 cycles
 Optimization completed.
    -- Stationary point found.

                         Standard orientation:
 ---------------------------------------------------------------------
 Center     Atomic      Atomic             Coordinates (Angstroms)
 Number     Number       Type             X           Y           Z
 ---------------------------------------------------------------------
      1          6           0        2.443338    0.346571    0.272099
      2          6           0        1.074265    0.321428    0.967763
      3          6           0       -0.041324    0.140935   -0.101173
      4          6           0        0.216452   -1.200027   -0.811066
      5          6           0        1.652797   -1.453763   -1.241170
      6          1           0        2.493636    1.219172   -0.389632
      7          1           0        0.936194    1.310283    1.419054
      8          1           0       -0.037290   -2.019589   -0.129930
      9          1           0       -0.411127   -1.321372   -1.697828
     10          8           0        2.651793   -0.816078   -0.593431
     11          8           0        1.936422   -2.269465   -2.093290
     12          6           0        3.649148    0.398612    1.208963
     13          6           0        4.975305    0.625819    0.476929
     14          6           0        0.991125   -0.720416    2.096393
     15          8           0       -1.284402    0.139829    0.587699
     16         14           0       -2.835125   -0.444564    0.299988
     17          6           0       -3.455866   -0.065174   -1.442577
     18          6           0       -2.916934   -2.308509    0.591374
     19          6           0       -3.892623    0.450528    1.571055
     20          1           0       -3.959709   -2.646289    0.564192
     21          1           0       -2.370574   -2.876137   -0.168918
     22          1           0       -2.508376   -2.577402    1.571438
     23          1           0       -3.854431    1.534227    1.420737
     24          1           0       -4.939803    0.136263    1.498428
     25          1           0       -3.550358    0.241019    2.589820
     26          1           0       -4.484173   -0.430341   -1.550370
     27          1           0       -3.465233    1.010540   -1.645170
     28          1           0       -2.856857   -0.551702   -2.219677
     29          1           0       -0.034191   -0.794739    2.461086
     30          1           0        1.314343   -1.713995    1.770280
     31          1           0        1.626814   -0.429879    2.936388
     32          1           0        3.695416   -0.530870    1.785748
     33          1           0        3.474938    1.209992    1.926710
     34          1           0        5.807935    0.657094    1.185941
     35          1           0        5.169530   -0.176399   -0.239768
     36          1           0        4.967402    1.574186   -0.071963
     37          6           0       -0.061550    1.282633   -1.161429
     38          6           0       -0.225959    2.676810   -0.621413
     39          6           0       -1.234844    3.493910   -0.927341
     40          1           0       -0.879451    1.064976   -1.855314
     41          1           0        0.859766    1.230881   -1.757835
     42          1           0        0.555443    3.043886    0.043278
     43          1           0       -1.294503    4.501462   -0.526396
     44          1           0       -2.034084    3.188196   -1.598397
 ---------------------------------------------------------------------

 The electronic state is 1-A.
 Alpha  occ. eigenvalues --  -66.14325 -19.18929 -19.13615 -19.13171 -10.32029
 Alpha  occ. eigenvalues --  -10.26220 -10.25302 -10.20115 -10.19951 -10.19369
 Alpha  occ. eigenvalues --  -10.19290 -10.18967 -10.18183 -10.17670 -10.17535
 Alpha  occ. eigenvalues --  -10.16124 -10.15915 -10.15762  -5.28367  -3.64465
 Alpha  occ. eigenvalues --   -3.64172  -3.64157  -1.09599  -1.01424  -1.00549
 Alpha  occ. eigenvalues --   -0.82898  -0.80125  -0.78001  -0.74753  -0.71293
 Alpha  occ. eigenvalues --   -0.70509  -0.68735  -0.67688  -0.67509  -0.64147
 Alpha  occ. eigenvalues --   -0.61402  -0.60126  -0.56244  -0.52508  -0.51113
 Alpha  occ. eigenvalues --   -0.50753  -0.48910  -0.47676  -0.46023  -0.45254
 Alpha  occ. eigenvalues --   -0.44616  -0.43319  -0.42665  -0.42301  -0.41472
 Alpha  occ. eigenvalues --   -0.40673  -0.40610  -0.40430  -0.40068  -0.38932
 Alpha  occ. eigenvalues --   -0.38873  -0.38512  -0.37962  -0.37822  -0.37262
 Alpha  occ. eigenvalues --   -0.36740  -0.35726  -0.35120  -0.34978  -0.34537
 Alpha  occ. eigenvalues --   -0.33976  -0.32392  -0.31555  -0.30354  -0.29155
 Alpha  occ. eigenvalues --   -0.28483  -0.27519  -0.26209  -0.25499
 Alpha virt. eigenvalues --    0.00235   0.01576   0.06242   0.07741   0.08283
 Alpha virt. eigenvalues --    0.09149   0.09522   0.10689   0.11235   0.11571
 Alpha virt. eigenvalues --    0.11909   0.12805   0.13065   0.13726   0.14244

 Mulliken charges:
               1
     1  C    0.168904
     2  C   -0.102940
     3  C    0.323637
     4  C   -0.310231
     5  C    0.592317
     6  H    0.112855
     7  H    0.112122
     8  H    0.163075
     9  H    0.142269
    10  O   -0.484571
    11  O   -0.497480
    12  C   -0.191562
    13  C   -0.330992
    14  C   -0.339413
    15  O   -0.647565
    16  Si   0.909935
    17  C   -0.558041
    18  C   -0.552306
    19  C   -0.533337
    20  H    0.119608
    21  H    0.118334
    22  H    0.119807
    23  H    0.123698
    24  H    0.117317
    25  H    0.121275
    26  H    0.121823
    27  H    0.122089
    28  H    0.119353
    29  H    0.132832
    30  H    0.109524
    31  H    0.113245
    32  H    0.117337
    33  H    0.109085
    34  H    0.108029
    35  H    0.125394
    36  H    0.106606
    37  C   -0.236228
    38  C   -0.012871
    39  C   -0.261812
    40  H    0.110245
    41  H    0.114700
    42  H    0.094300
    43  H    0.106087
    44  H    0.103550
 Sum of Mulliken charges =   0.00000

 Dipole moment (field-independent basis, Debye):
    X=             -2.1523    Y=              2.8683    Z=              2.6534  Tot=              4.4610
 Quadrupole moment (field-independent basis, Debye-Ang):
   XX=           -116.6585   YY=           -122.6331   ZZ=           -123.2543
   XY=             11.0855   XZ=             11.4552   YZ=             -7.5651

 Normal termination of Gaussian 09 at Wed Feb  6 11:19:16 2019.
