 Gaussian 09, Revision D.01,
 Gaussian 09:  ES64L-G09RevD.01 24-Apr-2013

 ---------------------------------------------------------------
 # b3lyp/6-31g(d,p) Opt=(maxcycles=25) scrf=(solvent=chloroform)
 ---------------------------------------------------------------

 -------------
 P_ng_4ginp004
 -------------
 Symbolic Z-matrix:
 Charge =  0 Multiplicity = 1

 SCF Done:  E(RB3LYP) =  -1064.41655228     A.U. after   13 cycles
 SCF Done:  E(RB3LYP) =  -1064.42200395     A.U. after   10 cycles
 SCF Done:  E(RB3LYP) =  -1064.42266737     A.U. after   10 cycles
 SCF Done:  E(RB3LYP) =  -1064.42265362     A.U. after   10 cycles
 SCF Done:  E(RB3LYP) =  -1064.42311552     A.U. after   10 cycles
 SCF Done:  E(RB3LYP) =  -1064.42319164     A.U. after    9 cycles
 SCF Done:  E(RB3LYP) =  -1064.42323095     A.U. after   10 cycles
 SCF Done:  E(RB3LYP) =  -1064.42327571     A.U. after    9 cycles
 SCF Done:  E(RB3LYP) =  -1064.42329729     A.U. after    8 cycles
 SCF Done:  E(RB3LYP) =  -1064.42330805     A.U. after    8 cycles
 SCF Done:  E(RB3LYP) =  -1064.42331129     A.U. after    8 cycles
 SCF Done:  E(RB3LYP) =  -1064.42331363     A.U. after    8 cycles
 SCF Done:  E(RB3LYP) =  -1064.42331461     A.U. after    7 cycles
 SCF Done:  E(RB3LYP) =  -1064.42331501     A.U. after    7 cycles
 SCF Done:  E(RB3LYP) =  -1064.42331519     A.U. after    7 cycles
 SCF Done:  E(RB3LYP) =  -1064.42331520     A.U. after    7 cycles
 SCF Done:  E(RB3LYP) =  -1064.42331514     A.U. after    6 cycles
 Optimization completed.
    -- Stationary point found.

                         Standard orientation:
 ---------------------------------------------------------------------
 Center     Atomic      Atomic             Coordinates (Angstroms)
 Number     Number       Type             X           Y           Z
 ---------------------------------------------------------------------
      1          6           0       -2.443277    0.007076    0.030721
      2          6           0       -1.130563    0.255321    0.786170
      3          6           0        0.062517   -0.102815   -0.142973
      4          6           0       -0.064678   -1.588958   -0.521998
      5          6           0       -1.459300   -2.070657   -0.892150
      6          1           0       -2.478759    0.664389   -0.845076
      7          1           0       -1.075275    1.334530    0.966641
      8          1           0        0.594638   -1.860444   -1.349500
      9          1           0        0.245581   -2.197831    0.334513
     10          8           0       -2.533115   -1.360193   -0.487533
     11          8           0       -1.640034   -3.115891   -1.482165
     12          6           0       -3.732116    0.219389    0.825201
     13          6           0       -3.928137    1.665741    1.291150
     14          6           0       -1.070117   -0.464524    2.143343
     15          8           0        1.251789    0.118179    0.611482
     16         14           0        2.908920   -0.009015    0.338908
     17          6           0        3.633983   -0.194344    2.064489
     18          6           0        3.369937   -1.498294   -0.726413
     19          6           0        3.585327    1.560087   -0.462626
     20          1           0        4.462336   -1.569090   -0.789655
     21          1           0        3.002699   -2.437737   -0.301320
     22          1           0        2.991193   -1.418439   -1.750790
     23          1           0        4.677779    1.498628   -0.533233
     24          1           0        3.199477    1.718233   -1.474673
     25          1           0        3.343078    2.447627    0.131685
     26          1           0        4.728344   -0.233422    2.027256
     27          1           0        3.351392    0.649772    2.702272
     28          1           0        3.281277   -1.111598    2.547414
     29          1           0       -1.782437   -0.025014    2.846537
     30          1           0       -1.309793   -1.529348    2.059635
     31          1           0       -0.071703   -0.370773    2.572086
     32          1           0       -3.754518   -0.465418    1.679353
     33          1           0       -4.562380   -0.072368    0.172619
     34          1           0       -4.905200    1.781663    1.768850
     35          1           0       -3.168350    1.970852    2.017500
     36          1           0       -3.884033    2.365467    0.449434
     37          6           0        0.086865    0.763008   -1.434046
     38          6           0        0.043134    2.248580   -1.202445
     39          6           0       -0.787318    3.089945   -1.821335
     40          1           0       -0.729208    0.468986   -2.103319
     41          1           0        1.011563    0.500217   -1.966201
     42          1           0        0.759089    2.641637   -0.482823
     43          1           0       -0.763437    4.158497   -1.628716
     44          1           0       -1.514895    2.743103   -2.551992
 ---------------------------------------------------------------------

 The electronic state is 1-A.
 Alpha  occ. eigenvalues --  -66.14453 -19.18777 -19.13793 -19.12968 -10.31826
 Alpha  occ. eigenvalues --  -10.26171 -10.25021 -10.19879 -10.19678 -10.19535
 Alpha  occ. eigenvalues --  -10.19408 -10.18773 -10.18364 -10.18011 -10.17518
 Alpha  occ. eigenvalues --  -10.16211 -10.15998 -10.15879  -5.28491  -3.64590
 Alpha  occ. eigenvalues --   -3.64296  -3.64281  -1.09443  -1.01232  -1.00563
 Alpha  occ. eigenvalues --   -0.82918  -0.80087  -0.77949  -0.74495  -0.71291
 Alpha  occ. eigenvalues --   -0.70694  -0.69090  -0.67791  -0.67587  -0.64541
 Alpha  occ. eigenvalues --   -0.60748  -0.59539  -0.56536  -0.52213  -0.50689
 Alpha  occ. eigenvalues --   -0.50456  -0.49178  -0.49047  -0.45951  -0.44814
 Alpha  occ. eigenvalues --   -0.44199  -0.43089  -0.42901  -0.42504  -0.41804
 Alpha  occ. eigenvalues --   -0.40935  -0.40736  -0.40149  -0.39471  -0.39017
 Alpha  occ. eigenvalues --   -0.38821  -0.38452  -0.37964  -0.37535  -0.37277
 Alpha  occ. eigenvalues --   -0.36524  -0.36123  -0.35562  -0.35210  -0.34686
 Alpha  occ. eigenvalues --   -0.33689  -0.32449  -0.31516  -0.30494  -0.29072
 Alpha  occ. eigenvalues --   -0.28242  -0.27775  -0.26230  -0.25502
 Alpha virt. eigenvalues --    0.00573   0.01077   0.06284   0.07448   0.08551
 Alpha virt. eigenvalues --    0.09114   0.09337   0.10055   0.10554   0.12004
 Alpha virt. eigenvalues --    0.12616   0.13034   0.13891   0.14428   0.14617

 Mulliken charges:
               1
     1  C    0.171912
     2  C   -0.097143
     3  C    0.312981
     4  C   -0.298567
     5  C    0.593392
     6  H    0.114013
     7  H    0.112850
     8  H    0.140394
     9  H    0.160631
    10  O   -0.490710
    11  O   -0.500993
    12  C   -0.196380
    13  C   -0.335221
    14  C   -0.337833
    15  O   -0.645613
    16  Si   0.904323
    17  C   -0.532437
    18  C   -0.556934
    19  C   -0.549170
    20  H    0.123380
    21  H    0.123480
    22  H    0.120244
    23  H    0.120614
    24  H    0.119196
    25  H    0.121015
    26  H    0.118596
    27  H    0.121923
    28  H    0.120397
    29  H    0.112054
    30  H    0.108481
    31  H    0.131164
    32  H    0.113248
    33  H    0.114087
    34  H    0.114488
    35  H    0.115766
    36  H    0.113303
    37  C   -0.239261
    38  C   -0.024691
    39  C   -0.264960
    40  H    0.107557
    41  H    0.122113
    42  H    0.106395
    43  H    0.108101
    44  H    0.103815
 Sum of Mulliken charges =   0.00000

 Dipole moment (field-independent basis, Debye):
    X=              2.3220    Y=              4.2360    Z=              1.5515  Tot=              5.0737
 Quadrupole moment (field-independent basis, Debye-Ang):
   XX=           -113.7559   YY=           -130.6513   ZZ=           -119.4735
   XY=            -12.5524   XZ=             -5.7028   YZ=             -7.8671

 Normal termination of Gaussian 09 at Wed Feb  6 11:10:28 2019.
