 Gaussian 09, Revision D.01,
 Gaussian 09:  ES64L-G09RevD.01 24-Apr-2013

 ---------------------------------------------------------------
 # b3lyp/6-31g(d,p) Opt=(maxcycles=25) scrf=(solvent=chloroform)
 ---------------------------------------------------------------

 --------------------
 P_ng_correct1ginp003
 --------------------
 Symbolic Z-matrix:
 Charge =  0 Multiplicity = 1

 SCF Done:  E(RB3LYP) =  -1064.41670204     A.U. after   13 cycles
 SCF Done:  E(RB3LYP) =  -1064.42231172     A.U. after   11 cycles
 SCF Done:  E(RB3LYP) =  -1064.42304251     A.U. after   10 cycles
 SCF Done:  E(RB3LYP) =  -1064.42312430     A.U. after   10 cycles
 SCF Done:  E(RB3LYP) =  -1064.42325751     A.U. after    9 cycles
 SCF Done:  E(RB3LYP) =  -1064.42331321     A.U. after    9 cycles
 SCF Done:  E(RB3LYP) =  -1064.42333843     A.U. after    9 cycles
 SCF Done:  E(RB3LYP) =  -1064.42335441     A.U. after    9 cycles
 SCF Done:  E(RB3LYP) =  -1064.42336780     A.U. after    8 cycles
 SCF Done:  E(RB3LYP) =  -1064.42337712     A.U. after    9 cycles
 SCF Done:  E(RB3LYP) =  -1064.42337948     A.U. after    8 cycles
 SCF Done:  E(RB3LYP) =  -1064.42338091     A.U. after    7 cycles
 SCF Done:  E(RB3LYP) =  -1064.42338094     A.U. after    7 cycles
 SCF Done:  E(RB3LYP) =  -1064.42338094     A.U. after    7 cycles
 SCF Done:  E(RB3LYP) =  -1064.42338092     A.U. after    7 cycles
 SCF Done:  E(RB3LYP) =  -1064.42338066     A.U. after    7 cycles
 SCF Done:  E(RB3LYP) =  -1064.42338079     A.U. after    7 cycles
 SCF Done:  E(RB3LYP) =  -1064.42338083     A.U. after    6 cycles
 Optimization completed.
    -- Stationary point found.

                         Standard orientation:
 ---------------------------------------------------------------------
 Center     Atomic      Atomic             Coordinates (Angstroms)
 Number     Number       Type             X           Y           Z
 ---------------------------------------------------------------------
      1          6           0       -2.401560    0.141879   -0.350119
      2          6           0       -1.005449    0.323302   -0.963346
      3          6           0        0.101423    0.039722    0.092271
      4          6           0       -0.091369   -1.429883    0.502673
      5          6           0       -1.494364   -1.778337    0.961789
      6          1           0       -2.608665    0.982993    0.324197
      7          1           0       -0.870255   -0.455399   -1.727172
      8          1           0        0.123381   -2.068892   -0.361889
      9          1           0        0.588149   -1.729736    1.304408
     10          8           0       -2.526426   -1.053705    0.487336
     11          8           0       -1.725936   -2.709556    1.704709
     12          6           0       -3.527539    0.041606   -1.381978
     13          6           0       -4.923801   -0.073971   -0.762820
     14          6           0       -0.879998    1.681826   -1.669469
     15          8           0        1.350682    0.226441   -0.564976
     16         14           0        2.920329   -0.352344   -0.365531
     17          6           0        3.535022   -0.183506    1.411644
     18          6           0        3.064384   -2.153096   -0.913664
     19          6           0        3.934632    0.740458   -1.511651
     20          1           0        2.559767   -2.844280   -0.231447
     21          1           0        2.644140   -2.298563   -1.914605
     22          1           0        4.120532   -2.444897   -0.953106
     23          1           0        4.988886    0.442214   -1.502306
     24          1           0        3.575814    0.667821   -2.543622
     25          1           0        3.881207    1.792013   -1.211287
     26          1           0        3.462791    0.848329    1.771034
     27          1           0        2.988144   -0.824764    2.110977
     28          1           0        4.590208   -0.477599    1.460315
     29          1           0       -1.489359    1.706991   -2.576672
     30          1           0       -1.188779    2.508318   -1.025193
     31          1           0        0.158685    1.846537   -1.961162
     32          1           0       -3.326223   -0.821927   -2.028440
     33          1           0       -3.485187    0.930941   -2.018860
     34          1           0       -5.687271   -0.126700   -1.544783
     35          1           0       -5.008774   -0.969220   -0.142384
     36          1           0       -5.149463    0.794822   -0.134231
     37          6           0        0.049222    0.925627    1.368554
     38          6           0        0.317053    2.395262    1.190265
     39          6           0       -0.385976    3.369590    1.770469
     40          1           0        0.814786    0.518828    2.043500
     41          1           0       -0.908442    0.783753    1.882815
     42          1           0        1.175899    2.649604    0.572060
     43          1           0       -0.122704    4.415450    1.642342
     44          1           0       -1.248505    3.157849    2.398678
 ---------------------------------------------------------------------

 The electronic state is 1-A.
 Alpha  occ. eigenvalues --  -66.14481 -19.18876 -19.13920 -19.13061 -10.31963
 Alpha  occ. eigenvalues --  -10.26236 -10.25286 -10.20085 -10.19937 -10.19302
 Alpha  occ. eigenvalues --  -10.19162 -10.18870 -10.17938 -10.17461 -10.17413
 Alpha  occ. eigenvalues --  -10.16206 -10.16030 -10.15917  -5.28526  -3.64627
 Alpha  occ. eigenvalues --   -3.64328  -3.64316  -1.09586  -1.01334  -1.00704
 Alpha  occ. eigenvalues --   -0.82824  -0.80168  -0.77837  -0.74970  -0.71287
 Alpha  occ. eigenvalues --   -0.70016  -0.69055  -0.67770  -0.67633  -0.64091
 Alpha  occ. eigenvalues --   -0.61353  -0.59397  -0.56437  -0.54026  -0.51015
 Alpha  occ. eigenvalues --   -0.50123  -0.48394  -0.46751  -0.46031  -0.45026
 Alpha  occ. eigenvalues --   -0.44620  -0.43315  -0.42596  -0.42125  -0.41761
 Alpha  occ. eigenvalues --   -0.40798  -0.40644  -0.40189  -0.39659  -0.39310
 Alpha  occ. eigenvalues --   -0.39080  -0.38545  -0.38214  -0.37945  -0.36829
 Alpha  occ. eigenvalues --   -0.36678  -0.36162  -0.35229  -0.34783  -0.34303
 Alpha  occ. eigenvalues --   -0.33952  -0.32425  -0.31563  -0.30487  -0.29154
 Alpha  occ. eigenvalues --   -0.28518  -0.27649  -0.26237  -0.25109
 Alpha virt. eigenvalues --    0.00745   0.01428   0.06268   0.07355   0.08565
 Alpha virt. eigenvalues --    0.09343   0.09771   0.10409   0.11363   0.11682
 Alpha virt. eigenvalues --    0.12038   0.12612   0.13589   0.14041   0.14279

 Mulliken charges:
               1
     1  C    0.174617
     2  C   -0.090723
     3  C    0.308401
     4  C   -0.307744
     5  C    0.592104
     6  H    0.114591
     7  H    0.102253
     8  H    0.158626
     9  H    0.140092
    10  O   -0.486084
    11  O   -0.499661
    12  C   -0.186949
    13  C   -0.328468
    14  C   -0.337966
    15  O   -0.649965
    16  Si   0.909822
    17  C   -0.555632
    18  C   -0.549212
    19  C   -0.535353
    20  H    0.119864
    21  H    0.120879
    22  H    0.121288
    23  H    0.119081
    24  H    0.122131
    25  H    0.120564
    26  H    0.123002
    27  H    0.121036
    28  H    0.122571
    29  H    0.108212
    30  H    0.115827
    31  H    0.127836
    32  H    0.107504
    33  H    0.112623
    34  H    0.106671
    35  H    0.125522
    36  H    0.106420
    37  C   -0.229687
    38  C   -0.020056
    39  C   -0.267434
    40  H    0.122797
    41  H    0.109193
    42  H    0.105876
    43  H    0.104685
    44  H    0.100846
 Sum of Mulliken charges =   0.00000

 Dipole moment (field-independent basis, Debye):
    X=              2.4423    Y=              2.9951    Z=             -2.4763  Tot=              4.5899
 Quadrupole moment (field-independent basis, Debye-Ang):
   XX=           -115.0590   YY=           -126.7958   ZZ=           -121.0967
   XY=            -11.1755   XZ=              7.6537   YZ=              8.4069

 Normal termination of Gaussian 09 at Wed Feb  6 11:21:47 2019.
