 Gaussian 09, Revision D.01,
 Gaussian 09:  ES64L-G09RevD.01 24-Apr-2013

 ---------------------------------------------------------------
 # b3lyp/6-31g(d,p) Opt=(maxcycles=25) scrf=(solvent=chloroform)
 ---------------------------------------------------------------

 -------------
 P_ng_2ginp012
 -------------
 Symbolic Z-matrix:
 Charge =  0 Multiplicity = 1

 SCF Done:  E(RB3LYP) =  -1064.41598300     A.U. after   13 cycles
 SCF Done:  E(RB3LYP) =  -1064.42150481     A.U. after   10 cycles
 SCF Done:  E(RB3LYP) =  -1064.42231634     A.U. after   10 cycles
 SCF Done:  E(RB3LYP) =  -1064.42237471     A.U. after   10 cycles
 SCF Done:  E(RB3LYP) =  -1064.42260282     A.U. after   10 cycles
 SCF Done:  E(RB3LYP) =  -1064.42270127     A.U. after    9 cycles
 SCF Done:  E(RB3LYP) =  -1064.42274483     A.U. after    9 cycles
 SCF Done:  E(RB3LYP) =  -1064.42277416     A.U. after    9 cycles
 SCF Done:  E(RB3LYP) =  -1064.42279156     A.U. after    8 cycles
 SCF Done:  E(RB3LYP) =  -1064.42281033     A.U. after    9 cycles
 SCF Done:  E(RB3LYP) =  -1064.42281345     A.U. after    7 cycles
 SCF Done:  E(RB3LYP) =  -1064.42281389     A.U. after    7 cycles
 SCF Done:  E(RB3LYP) =  -1064.42281455     A.U. after    7 cycles
 SCF Done:  E(RB3LYP) =  -1064.42281446     A.U. after    7 cycles
 SCF Done:  E(RB3LYP) =  -1064.42281470     A.U. after    6 cycles
 SCF Done:  E(RB3LYP) =  -1064.42281485     A.U. after    6 cycles
 SCF Done:  E(RB3LYP) =  -1064.42281510     A.U. after    6 cycles
 Optimization completed.
    -- Stationary point found.

                         Standard orientation:
 ---------------------------------------------------------------------
 Center     Atomic      Atomic             Coordinates (Angstroms)
 Number     Number       Type             X           Y           Z
 ---------------------------------------------------------------------
      1          6           0        2.203327   -0.037948    0.495328
      2          6           0        0.722800    0.171546    0.850456
      3          6           0       -0.140716    0.253465   -0.441087
      4          6           0        0.029222   -1.103326   -1.145174
      5          6           0        1.470910   -1.512529   -1.382414
      6          1           0        2.606784    0.895853    0.083129
      7          1           0        0.377764   -0.732330    1.371795
      8          1           0       -0.408287   -1.894550   -0.524424
      9          1           0       -0.482739   -1.130451   -2.109640
     10          8           0        2.420627   -1.040462   -0.550311
     11          8           0        1.794247   -2.285472   -2.259946
     12          6           0        3.072975   -0.477280    1.675286
     13          6           0        4.557645   -0.621238    1.326916
     14          6           0        0.545274    1.353940    1.815567
     15          8           0       -1.501912    0.497183   -0.103667
     16         14           0       -2.831977   -0.428552    0.354240
     17          6           0       -2.439857   -1.592189    1.789283
     18          6           0       -4.094332    0.857232    0.892454
     19          6           0       -3.510137   -1.415657   -1.104255
     20          1           0       -3.732725    1.438567    1.746910
     21          1           0       -4.313078    1.556800    0.079069
     22          1           0       -5.036138    0.380279    1.185799
     23          1           0       -3.698470   -0.765894   -1.965608
     24          1           0       -2.833409   -2.213166   -1.426168
     25          1           0       -4.462218   -1.883979   -0.828211
     26          1           0       -1.737897   -2.387514    1.516821
     27          1           0       -2.021302   -1.049945    2.643670
     28          1           0       -3.362780   -2.078385    2.127236
     29          1           0        0.921199    1.103952    2.811027
     30          1           0        1.065417    2.249017    1.466687
     31          1           0       -0.514498    1.598024    1.910984
     32          1           0        2.679545   -1.426688    2.060145
     33          1           0        2.957572    0.261421    2.474946
     34          1           0        5.130591   -0.927935    2.207126
     35          1           0        4.709178   -1.367886    0.543921
     36          1           0        4.973433    0.328699    0.972641
     37          6           0        0.259094    1.372421   -1.442732
     38          6           0        0.080825    2.793013   -0.982037
     39          6           0        0.974416    3.767231   -1.162875
     40          1           0       -0.387403    1.215077   -2.317495
     41          1           0        1.287398    1.219616   -1.789371
     42          1           0       -0.873769    3.018472   -0.511180
     43          1           0        0.774993    4.787782   -0.849236
     44          1           0        1.936145    3.582818   -1.636840
 ---------------------------------------------------------------------

 The electronic state is 1-A.
 Alpha  occ. eigenvalues --  -66.14509 -19.18921 -19.13890 -19.13113 -10.32013
 Alpha  occ. eigenvalues --  -10.26252 -10.25366 -10.20163 -10.20082 -10.19160
 Alpha  occ. eigenvalues --  -10.18998 -10.18933 -10.17819 -10.17665 -10.17451
 Alpha  occ. eigenvalues --  -10.16307 -10.16014 -10.15934  -5.28556  -3.64656
 Alpha  occ. eigenvalues --   -3.64358  -3.64344  -1.09623  -1.01384  -1.00699
 Alpha  occ. eigenvalues --   -0.82868  -0.80206  -0.77750  -0.75061  -0.71462
 Alpha  occ. eigenvalues --   -0.69879  -0.69078  -0.67879  -0.67633  -0.63984
 Alpha  occ. eigenvalues --   -0.61404  -0.59519  -0.56286  -0.54351  -0.50905
 Alpha  occ. eigenvalues --   -0.50304  -0.48434  -0.46839  -0.45964  -0.45158
 Alpha  occ. eigenvalues --   -0.44635  -0.43026  -0.42713  -0.42219  -0.41557
 Alpha  occ. eigenvalues --   -0.40840  -0.40597  -0.39986  -0.39564  -0.39348
 Alpha  occ. eigenvalues --   -0.39122  -0.38911  -0.38278  -0.37994  -0.36992
 Alpha  occ. eigenvalues --   -0.36677  -0.36089  -0.35318  -0.34944  -0.34226
 Alpha  occ. eigenvalues --   -0.34012  -0.32419  -0.31523  -0.30860  -0.29181
 Alpha  occ. eigenvalues --   -0.28810  -0.27109  -0.26280  -0.25121
 Alpha virt. eigenvalues --    0.00572   0.01604   0.06322   0.07255   0.08655
 Alpha virt. eigenvalues --    0.09110   0.09654   0.11064   0.11189   0.11598
 Alpha virt. eigenvalues --    0.12450   0.12917   0.13278   0.13545   0.14311

 Mulliken charges:
               1
     1  C    0.174534
     2  C   -0.090120
     3  C    0.308165
     4  C   -0.304601
     5  C    0.590519
     6  H    0.115535
     7  H    0.100419
     8  H    0.150908
     9  H    0.144761
    10  O   -0.485516
    11  O   -0.499045
    12  C   -0.187742
    13  C   -0.328495
    14  C   -0.338970
    15  O   -0.651227
    16  Si   0.912582
    17  C   -0.558200
    18  C   -0.535794
    19  C   -0.547356
    20  H    0.120415
    21  H    0.123081
    22  H    0.119059
    23  H    0.122152
    24  H    0.119285
    25  H    0.120644
    26  H    0.118999
    27  H    0.122167
    28  H    0.123242
    29  H    0.109080
    30  H    0.118029
    31  H    0.127443
    32  H    0.107186
    33  H    0.112927
    34  H    0.106778
    35  H    0.125688
    36  H    0.106826
    37  C   -0.224240
    38  C   -0.021770
    39  C   -0.266371
    40  H    0.124597
    41  H    0.105884
    42  H    0.105351
    43  H    0.103769
    44  H    0.099422
 Sum of Mulliken charges =   0.00000

 Dipole moment (field-independent basis, Debye):
    X=             -2.5023    Y=              2.0199    Z=              3.7511  Tot=              4.9409
 Quadrupole moment (field-independent basis, Debye-Ang):
   XX=           -117.5533   YY=           -124.3375   ZZ=           -122.8767
   XY=             10.9454   XZ=              7.8218   YZ=             -8.3140

 Normal termination of Gaussian 09 at Wed Feb  6 11:17:55 2019.
