 Gaussian 09, Revision D.01,
 Gaussian 09:  ES64L-G09RevD.01 24-Apr-2013

 ---------------------------------------------------------------
 # b3lyp/6-31g(d,p) Opt=(maxcycles=25) scrf=(solvent=chloroform)
 ---------------------------------------------------------------

 -------------
 P_ng_2ginp017
 -------------
 Symbolic Z-matrix:
 Charge =  0 Multiplicity = 1

 SCF Done:  E(RB3LYP) =  -1064.41434125     A.U. after   13 cycles
 SCF Done:  E(RB3LYP) =  -1064.42026027     A.U. after   10 cycles
 SCF Done:  E(RB3LYP) =  -1064.42116315     A.U. after   10 cycles
 SCF Done:  E(RB3LYP) =  -1064.42149423     A.U. after   11 cycles
 SCF Done:  E(RB3LYP) =  -1064.42184505     A.U. after    9 cycles
 SCF Done:  E(RB3LYP) =  -1064.42198388     A.U. after   10 cycles
 SCF Done:  E(RB3LYP) =  -1064.42209445     A.U. after   10 cycles
 SCF Done:  E(RB3LYP) =  -1064.42225182     A.U. after    9 cycles
 SCF Done:  E(RB3LYP) =  -1064.42228017     A.U. after   10 cycles
 SCF Done:  E(RB3LYP) =  -1064.42231705     A.U. after    9 cycles
 SCF Done:  E(RB3LYP) =  -1064.42232761     A.U. after    8 cycles
 SCF Done:  E(RB3LYP) =  -1064.42232856     A.U. after    7 cycles
 SCF Done:  E(RB3LYP) =  -1064.42232911     A.U. after    7 cycles
 SCF Done:  E(RB3LYP) =  -1064.42232988     A.U. after    7 cycles
 SCF Done:  E(RB3LYP) =  -1064.42233097     A.U. after    7 cycles
 SCF Done:  E(RB3LYP) =  -1064.42233186     A.U. after    7 cycles
 SCF Done:  E(RB3LYP) =  -1064.42233230     A.U. after    6 cycles
 SCF Done:  E(RB3LYP) =  -1064.42233244     A.U. after    6 cycles
 SCF Done:  E(RB3LYP) =  -1064.42233252     A.U. after    5 cycles
 SCF Done:  E(RB3LYP) =  -1064.42233253     A.U. after    5 cycles
 Optimization completed.
    -- Stationary point found.

                         Standard orientation:
 ---------------------------------------------------------------------
 Center     Atomic      Atomic             Coordinates (Angstroms)
 Number     Number       Type             X           Y           Z
 ---------------------------------------------------------------------
      1          6           0        2.114272    0.689560    0.515274
      2          6           0        0.864144    1.579096    0.313660
      3          6           0       -0.266737    0.828235   -0.438913
      4          6           0        0.300327    0.308771   -1.765292
      5          6           0        1.594800   -0.467556   -1.639286
      6          1           0        2.990154    1.347579    0.557533
      7          1           0        0.472272    1.800083    1.312232
      8          1           0       -0.415505   -0.326981   -2.291205
      9          1           0        0.506325    1.152546   -2.434771
     10          8           0        2.423985   -0.184954   -0.620380
     11          8           0        1.935203   -1.298631   -2.458404
     12          6           0        2.122667   -0.168625    1.784032
     13          6           0        3.443403   -0.910815    2.007346
     14          6           0        1.264146    2.915518   -0.338874
     15          8           0       -0.659380   -0.258550    0.406178
     16         14           0       -1.553347   -1.678497    0.230499
     17          6           0       -3.062921   -1.479601   -0.888527
     18          6           0       -0.464553   -3.070708   -0.425054
     19          6           0       -2.115340   -2.073208    1.982320
     20          1           0       -1.051159   -3.992558   -0.515145
     21          1           0       -0.038081   -2.847867   -1.407529
     22          1           0        0.368278   -3.273443    0.256802
     23          1           0       -1.261086   -2.167354    2.660785
     24          1           0       -2.771642   -1.289746    2.375525
     25          1           0       -2.668586   -3.018720    2.008653
     26          1           0       -3.621497   -2.423246   -0.898892
     27          1           0       -3.742182   -0.700661   -0.527280
     28          1           0       -2.802066   -1.248852   -1.926718
     29          1           0        2.033781    3.403098    0.267200
     30          1           0        1.680944    2.779927   -1.342473
     31          1           0        0.420381    3.604554   -0.407025
     32          1           0        1.285349   -0.868919    1.749146
     33          1           0        1.932935    0.507838    2.627068
     34          1           0        3.410811   -1.485165    2.938289
     35          1           0        3.649913   -1.604395    1.188008
     36          1           0        4.285910   -0.212759    2.075722
     37          6           0       -1.499884    1.728101   -0.710020
     38          6           0       -2.120975    2.313942    0.528286
     39          6           0       -2.434816    3.600742    0.688491
     40          1           0       -2.238503    1.101815   -1.225706
     41          1           0       -1.233841    2.525838   -1.410334
     42          1           0       -2.328822    1.610342    1.332766
     43          1           0       -2.899815    3.964695    1.600072
     44          1           0       -2.247075    4.337667   -0.089535
 ---------------------------------------------------------------------

 The electronic state is 1-A.
 Alpha  occ. eigenvalues --  -66.14372 -19.18679 -19.13735 -19.12799 -10.31704
 Alpha  occ. eigenvalues --  -10.26239 -10.24968 -10.20098 -10.19943 -10.19191
 Alpha  occ. eigenvalues --  -10.19111 -10.18196 -10.18144 -10.18138 -10.17129
 Alpha  occ. eigenvalues --  -10.16208 -10.15841 -10.15541  -5.28405  -3.64506
 Alpha  occ. eigenvalues --   -3.64215  -3.64187  -1.09347  -1.01060  -1.00383
 Alpha  occ. eigenvalues --   -0.82700  -0.79891  -0.77796  -0.74912  -0.71203
 Alpha  occ. eigenvalues --   -0.70088  -0.68972  -0.67685  -0.67367  -0.64533
 Alpha  occ. eigenvalues --   -0.61637  -0.58939  -0.55759  -0.52933  -0.51478
 Alpha  occ. eigenvalues --   -0.49989  -0.48531  -0.46989  -0.46776  -0.44934
 Alpha  occ. eigenvalues --   -0.43766  -0.43117  -0.42342  -0.41752  -0.41091
 Alpha  occ. eigenvalues --   -0.40763  -0.40551  -0.40439  -0.39605  -0.39390
 Alpha  occ. eigenvalues --   -0.38994  -0.38626  -0.38057  -0.37772  -0.37490
 Alpha  occ. eigenvalues --   -0.36835  -0.36019  -0.35235  -0.34922  -0.34132
 Alpha  occ. eigenvalues --   -0.33481  -0.32203  -0.31191  -0.30583  -0.28570
 Alpha  occ. eigenvalues --   -0.27788  -0.27470  -0.26698  -0.25113
 Alpha virt. eigenvalues --    0.00970   0.01378   0.06152   0.07654   0.08247
 Alpha virt. eigenvalues --    0.09506   0.10170   0.10544   0.11279   0.11459
 Alpha virt. eigenvalues --    0.12039   0.12487   0.13212   0.13712   0.14710

 Mulliken charges:
               1
     1  C    0.176803
     2  C   -0.095945
     3  C    0.293403
     4  C   -0.300589
     5  C    0.614219
     6  H    0.109682
     7  H    0.116556
     8  H    0.140302
     9  H    0.150041
    10  O   -0.479652
    11  O   -0.512132
    12  C   -0.192938
    13  C   -0.329717
    14  C   -0.341792
    15  O   -0.651375
    16  Si   0.939980
    17  C   -0.558988
    18  C   -0.559577
    19  C   -0.540208
    20  H    0.116553
    21  H    0.128704
    22  H    0.121551
    23  H    0.121463
    24  H    0.118882
    25  H    0.118360
    26  H    0.123109
    27  H    0.122190
    28  H    0.119716
    29  H    0.115584
    30  H    0.113083
    31  H    0.118421
    32  H    0.137152
    33  H    0.101423
    34  H    0.103889
    35  H    0.123060
    36  H    0.102816
    37  C   -0.227398
    38  C   -0.027558
    39  C   -0.265084
    40  H    0.118300
    41  H    0.104971
    42  H    0.106020
    43  H    0.105835
    44  H    0.100887
 Sum of Mulliken charges =   0.00000

 Dipole moment (field-independent basis, Debye):
    X=             -2.9602    Y=              3.1475    Z=              2.2212  Tot=              4.8583
 Quadrupole moment (field-independent basis, Debye-Ang):
   XX=           -122.7474   YY=           -114.6055   ZZ=           -122.2988
   XY=              9.2689   XZ=              9.2245   YZ=             -7.1324

 Normal termination of Gaussian 09 at Wed Feb  6 11:34:26 2019.
