 Gaussian 09, Revision D.01,
 Gaussian 09:  ES64L-G09RevD.01 24-Apr-2013

 ---------------------------------------------------------------
 # b3lyp/6-31g(d,p) Opt=(maxcycles=25) scrf=(solvent=chloroform)
 ---------------------------------------------------------------

 -------------
 P_ng_2ginp006
 -------------
 Symbolic Z-matrix:
 Charge =  0 Multiplicity = 1

 SCF Done:  E(RB3LYP) =  -1064.41574061     A.U. after   13 cycles
 SCF Done:  E(RB3LYP) =  -1064.42213767     A.U. after   10 cycles
 SCF Done:  E(RB3LYP) =  -1064.42283258     A.U. after   10 cycles
 SCF Done:  E(RB3LYP) =  -1064.42275997     A.U. after   10 cycles
 SCF Done:  E(RB3LYP) =  -1064.42315965     A.U. after   10 cycles
 SCF Done:  E(RB3LYP) =  -1064.42320428     A.U. after    9 cycles
 SCF Done:  E(RB3LYP) =  -1064.42323399     A.U. after    9 cycles
 SCF Done:  E(RB3LYP) =  -1064.42324405     A.U. after    8 cycles
 SCF Done:  E(RB3LYP) =  -1064.42325429     A.U. after    8 cycles
 SCF Done:  E(RB3LYP) =  -1064.42326005     A.U. after    8 cycles
 SCF Done:  E(RB3LYP) =  -1064.42326431     A.U. after    8 cycles
 SCF Done:  E(RB3LYP) =  -1064.42326675     A.U. after    8 cycles
 SCF Done:  E(RB3LYP) =  -1064.42326810     A.U. after    7 cycles
 SCF Done:  E(RB3LYP) =  -1064.42326831     A.U. after    6 cycles
 Optimization completed.
    -- Stationary point found.

                         Standard orientation:
 ---------------------------------------------------------------------
 Center     Atomic      Atomic             Coordinates (Angstroms)
 Number     Number       Type             X           Y           Z
 ---------------------------------------------------------------------
      1          6           0       -2.356946    0.415601    0.118053
      2          6           0       -1.182014    0.203283   -0.853180
      3          6           0        0.126069    0.840925   -0.268746
      4          6           0        0.029220    0.887679    1.284466
      5          6           0       -0.834657   -0.187423    1.896075
      6          1           0       -2.450333    1.481190    0.369925
      7          1           0       -0.997846   -0.876098   -0.859273
      8          1           0        1.018544    0.860214    1.737187
      9          1           0       -0.423139    1.844699    1.573385
     10          8           0       -2.065373   -0.314088    1.351872
     11          8           0       -0.519231   -0.891147    2.834451
     12          6           0       -3.728378   -0.087872   -0.337633
     13          6           0       -3.801559   -1.583581   -0.662263
     14          6           0       -1.492011    0.623851   -2.295291
     15          8           0        1.249497    0.082608   -0.712095
     16         14           0        2.011375   -1.362068   -0.292960
     17          6           0        2.820564   -1.256267    1.407222
     18          6           0        0.837832   -2.841118   -0.323706
     19          6           0        3.320201   -1.560661   -1.629350
     20          1           0        0.346638   -2.956145   -1.295791
     21          1           0        1.411377   -3.756652   -0.134791
     22          1           0        0.063244   -2.781667    0.447538
     23          1           0        2.865165   -1.634852   -2.622507
     24          1           0        4.011481   -0.711565   -1.639253
     25          1           0        3.909173   -2.469474   -1.461935
     26          1           0        3.446504   -2.141648    1.570710
     27          1           0        3.465246   -0.375094    1.494992
     28          1           0        2.078230   -1.222945    2.210704
     29          1           0       -0.604070    0.503989   -2.921886
     30          1           0       -2.279508   -0.001820   -2.721973
     31          1           0       -1.820079    1.665388   -2.366397
     32          1           0       -4.037510    0.509495   -1.202186
     33          1           0       -4.438348    0.144761    0.464229
     34          1           0       -3.496633   -2.184294    0.198600
     35          1           0       -4.826373   -1.863441   -0.923512
     36          1           0       -3.160825   -1.855663   -1.506838
     37          6           0        0.367340    2.282931   -0.788954
     38          6           0        1.551458    2.968085   -0.165064
     39          6           0        1.505009    4.135083    0.479489
     40          1           0       -0.535646    2.883767   -0.627607
     41          1           0        0.527336    2.215325   -1.870542
     42          1           0        2.505461    2.455109   -0.275634
     43          1           0        2.397465    4.591992    0.897170
     44          1           0        0.573284    4.682291    0.606591
 ---------------------------------------------------------------------

 The electronic state is 1-A.
 Alpha  occ. eigenvalues --  -66.14180 -19.18985 -19.13671 -19.13546 -10.31791
 Alpha  occ. eigenvalues --  -10.26526 -10.25424 -10.20049 -10.19948 -10.19143
 Alpha  occ. eigenvalues --  -10.19048 -10.18993 -10.18309 -10.18031 -10.17652
 Alpha  occ. eigenvalues --  -10.15826 -10.15720 -10.15484  -5.28220  -3.64324
 Alpha  occ. eigenvalues --   -3.64023  -3.64006  -1.09880  -1.01664  -1.00400
 Alpha  occ. eigenvalues --   -0.82802  -0.80294  -0.77436  -0.74888  -0.71231
 Alpha  occ. eigenvalues --   -0.69859  -0.69680  -0.67486  -0.67288  -0.64705
 Alpha  occ. eigenvalues --   -0.60345  -0.59652  -0.56119  -0.53768  -0.52305
 Alpha  occ. eigenvalues --   -0.50132  -0.48875  -0.46944  -0.46174  -0.44228
 Alpha  occ. eigenvalues --   -0.43855  -0.43447  -0.42868  -0.42374  -0.41057
 Alpha  occ. eigenvalues --   -0.40925  -0.40648  -0.40333  -0.40092  -0.39102
 Alpha  occ. eigenvalues --   -0.38910  -0.38485  -0.37904  -0.37568  -0.37145
 Alpha  occ. eigenvalues --   -0.36523  -0.36222  -0.35901  -0.34885  -0.34430
 Alpha  occ. eigenvalues --   -0.33584  -0.33353  -0.31469  -0.30611  -0.29250
 Alpha  occ. eigenvalues --   -0.28324  -0.26787  -0.26510  -0.25416
 Alpha virt. eigenvalues --    0.00398   0.01624   0.06588   0.07520   0.08466
 Alpha virt. eigenvalues --    0.08929   0.09878   0.10524   0.11109   0.12416
 Alpha virt. eigenvalues --    0.12780   0.12933   0.13521   0.13854   0.14456

 Mulliken charges:
               1
     1  C    0.158639
     2  C   -0.090394
     3  C    0.297165
     4  C   -0.298235
     5  C    0.605210
     6  H    0.107178
     7  H    0.121849
     8  H    0.147148
     9  H    0.150649
    10  O   -0.476496
    11  O   -0.507205
    12  C   -0.198070
    13  C   -0.331217
    14  C   -0.343832
    15  O   -0.631967
    16  Si   0.900187
    17  C   -0.563267
    18  C   -0.559774
    19  C   -0.531889
    20  H    0.117708
    21  H    0.121472
    22  H    0.127525
    23  H    0.120145
    24  H    0.120631
    25  H    0.117996
    26  H    0.118292
    27  H    0.116652
    28  H    0.134941
    29  H    0.126601
    30  H    0.114892
    31  H    0.115684
    32  H    0.112325
    33  H    0.114899
    34  H    0.126051
    35  H    0.110065
    36  H    0.110912
    37  C   -0.219869
    38  C   -0.035871
    39  C   -0.259806
    40  H    0.099561
    41  H    0.123112
    42  H    0.106100
    43  H    0.105694
    44  H    0.098608
 Sum of Mulliken charges =   0.00000

 Dipole moment (field-independent basis, Debye):
    X=             -1.0018    Y=              2.2199    Z=             -3.7263  Tot=              4.4516
 Quadrupole moment (field-independent basis, Debye-Ang):
   XX=           -111.2148   YY=           -115.1390   ZZ=           -129.9084
   XY=             -5.5079   XZ=              6.0776   YZ=              7.4977

 Normal termination of Gaussian 09 at Wed Feb  6 11:09:30 2019.
