 Gaussian 09, Revision D.01,
 Gaussian 09:  ES64L-G09RevD.01 24-Apr-2013

 ---------------------------------------------------------------
 # b3lyp/6-31g(d,p) Opt=(maxcycles=25) scrf=(solvent=chloroform)
 ---------------------------------------------------------------

 --------------------
 P_ng_correct1ginp017
 --------------------
 Symbolic Z-matrix:
 Charge =  0 Multiplicity = 1

 SCF Done:  E(RB3LYP) =  -1064.41434142     A.U. after   13 cycles
 SCF Done:  E(RB3LYP) =  -1064.42026038     A.U. after   10 cycles
 SCF Done:  E(RB3LYP) =  -1064.42116321     A.U. after   10 cycles
 SCF Done:  E(RB3LYP) =  -1064.42149425     A.U. after   11 cycles
 SCF Done:  E(RB3LYP) =  -1064.42184505     A.U. after    9 cycles
 SCF Done:  E(RB3LYP) =  -1064.42198390     A.U. after   10 cycles
 SCF Done:  E(RB3LYP) =  -1064.42209444     A.U. after   10 cycles
 SCF Done:  E(RB3LYP) =  -1064.42225181     A.U. after    9 cycles
 SCF Done:  E(RB3LYP) =  -1064.42228017     A.U. after   10 cycles
 SCF Done:  E(RB3LYP) =  -1064.42231705     A.U. after    9 cycles
 SCF Done:  E(RB3LYP) =  -1064.42232406     A.U. after    8 cycles
 SCF Done:  E(RB3LYP) =  -1064.42232760     A.U. after    8 cycles
 SCF Done:  E(RB3LYP) =  -1064.42232856     A.U. after    7 cycles
 SCF Done:  E(RB3LYP) =  -1064.42232911     A.U. after    7 cycles
 SCF Done:  E(RB3LYP) =  -1064.42232988     A.U. after    7 cycles
 SCF Done:  E(RB3LYP) =  -1064.42233097     A.U. after    7 cycles
 SCF Done:  E(RB3LYP) =  -1064.42233186     A.U. after    7 cycles
 SCF Done:  E(RB3LYP) =  -1064.42233230     A.U. after    6 cycles
 SCF Done:  E(RB3LYP) =  -1064.42233244     A.U. after    6 cycles
 SCF Done:  E(RB3LYP) =  -1064.42233252     A.U. after    5 cycles
 Optimization completed.
    -- Stationary point found.

                         Standard orientation:
 ---------------------------------------------------------------------
 Center     Atomic      Atomic             Coordinates (Angstroms)
 Number     Number       Type             X           Y           Z
 ---------------------------------------------------------------------
      1          6           0        2.114338    0.689370    0.515291
      2          6           0        0.864269    1.578992    0.313681
      3          6           0       -0.266651    0.828220   -0.438921
      4          6           0        0.300396    0.308735   -1.765300
      5          6           0        1.594843   -0.467662   -1.639296
      6          1           0        2.990243    1.347360    0.557590
      7          1           0        0.472395    1.799970    1.312258
      8          1           0       -0.415470   -0.326996   -2.291195
      9          1           0        0.506449    1.152485   -2.434796
     10          8           0        2.424022   -0.185139   -0.620359
     11          8           0        1.935224   -1.298723   -2.458434
     12          6           0        2.122684   -0.168824    1.784044
     13          6           0        3.443424   -0.911000    2.007386
     14          6           0        1.264366    2.915398   -0.338816
     15          8           0       -0.659361   -0.258565    0.406156
     16         14           0       -1.553560   -1.678394    0.230514
     17          6           0       -3.063334   -1.479163   -0.888178
     18          6           0       -0.465056   -3.070616   -0.425488
     19          6           0       -2.115204   -2.073129    1.982435
     20          1           0        0.368029   -3.273394    0.256041
     21          1           0       -1.051689   -3.992457   -0.515467
     22          1           0       -0.038931   -2.847681   -1.408096
     23          1           0       -2.668928   -3.018361    2.008818
     24          1           0       -1.260801   -2.167794    2.660636
     25          1           0       -2.770991   -1.289381    2.375925
     26          1           0       -3.622570   -2.422421   -0.897868
     27          1           0       -3.741958   -0.699548   -0.527193
     28          1           0       -2.802545   -1.249165   -1.926552
     29          1           0        2.034083    3.402891    0.267224
     30          1           0        1.681085    2.779813   -1.342451
     31          1           0        0.420657    3.604510   -0.406887
     32          1           0        1.285368   -0.869118    1.749103
     33          1           0        1.932903    0.507620    2.627086
     34          1           0        3.410875   -1.485266    2.938380
     35          1           0        3.649910   -1.604647    1.188100
     36          1           0        4.285928   -0.212930    2.075662
     37          6           0       -1.499703    1.728196   -0.710070
     38          6           0       -2.120852    2.314032    0.528211
     39          6           0       -2.434573    3.600857    0.688458
     40          1           0       -2.238327    1.102015   -1.225870
     41          1           0       -1.233523    2.525950   -1.410315
     42          1           0       -2.328828    1.610425    1.332651
     43          1           0       -2.899593    3.964818    1.600024
     44          1           0       -2.246687    4.337806   -0.089511
 ---------------------------------------------------------------------

 The electronic state is 1-A.
 Alpha  occ. eigenvalues --  -66.14372 -19.18679 -19.13735 -19.12799 -10.31704
 Alpha  occ. eigenvalues --  -10.26239 -10.24967 -10.20098 -10.19942 -10.19191
 Alpha  occ. eigenvalues --  -10.19111 -10.18196 -10.18144 -10.18137 -10.17129
 Alpha  occ. eigenvalues --  -10.16208 -10.15841 -10.15541  -5.28405  -3.64506
 Alpha  occ. eigenvalues --   -3.64215  -3.64187  -1.09347  -1.01060  -1.00382
 Alpha  occ. eigenvalues --   -0.82700  -0.79891  -0.77796  -0.74912  -0.71203
 Alpha  occ. eigenvalues --   -0.70088  -0.68972  -0.67685  -0.67367  -0.64533
 Alpha  occ. eigenvalues --   -0.61637  -0.58939  -0.55759  -0.52933  -0.51478
 Alpha  occ. eigenvalues --   -0.49989  -0.48531  -0.46989  -0.46776  -0.44934
 Alpha  occ. eigenvalues --   -0.43766  -0.43117  -0.42342  -0.41752  -0.41091
 Alpha  occ. eigenvalues --   -0.40763  -0.40551  -0.40440  -0.39605  -0.39390
 Alpha  occ. eigenvalues --   -0.38994  -0.38626  -0.38057  -0.37772  -0.37490
 Alpha  occ. eigenvalues --   -0.36835  -0.36019  -0.35235  -0.34922  -0.34132
 Alpha  occ. eigenvalues --   -0.33480  -0.32203  -0.31191  -0.30583  -0.28569
 Alpha  occ. eigenvalues --   -0.27788  -0.27470  -0.26698  -0.25113
 Alpha virt. eigenvalues --    0.00970   0.01378   0.06152   0.07654   0.08246
 Alpha virt. eigenvalues --    0.09506   0.10170   0.10544   0.11279   0.11459
 Alpha virt. eigenvalues --    0.12039   0.12487   0.13212   0.13712   0.14710

 Mulliken charges:
               1
     1  C    0.176806
     2  C   -0.095946
     3  C    0.293406
     4  C   -0.300584
     5  C    0.614213
     6  H    0.109677
     7  H    0.116555
     8  H    0.140302
     9  H    0.150038
    10  O   -0.479653
    11  O   -0.512127
    12  C   -0.192935
    13  C   -0.329716
    14  C   -0.341792
    15  O   -0.651384
    16  Si   0.939975
    17  C   -0.558986
    18  C   -0.559566
    19  C   -0.540208
    20  H    0.121557
    21  H    0.116554
    22  H    0.128699
    23  H    0.118359
    24  H    0.121465
    25  H    0.118886
    26  H    0.123110
    27  H    0.122190
    28  H    0.119718
    29  H    0.115583
    30  H    0.113082
    31  H    0.118421
    32  H    0.137149
    33  H    0.101421
    34  H    0.103889
    35  H    0.123058
    36  H    0.102815
    37  C   -0.227406
    38  C   -0.027559
    39  C   -0.265083
    40  H    0.118297
    41  H    0.104975
    42  H    0.106020
    43  H    0.105836
    44  H    0.100888
 Sum of Mulliken charges =   0.00000

 Dipole moment (field-independent basis, Debye):
    X=             -2.9604    Y=              3.1475    Z=              2.2213  Tot=              4.8585
 Quadrupole moment (field-independent basis, Debye-Ang):
   XX=           -122.7467   YY=           -114.6062   ZZ=           -122.2991
   XY=              9.2697   XZ=              9.2239   YZ=             -7.1328

 Normal termination of Gaussian 09 at Wed Feb  6 11:32:32 2019.
