 Gaussian 09, Revision D.01,
 Gaussian 09:  ES64L-G09RevD.01 24-Apr-2013

 ---------------------------------------------------------------
 # b3lyp/6-31g(d,p) Opt=(maxcycles=25) scrf=(solvent=chloroform)
 ---------------------------------------------------------------

 --------------------
 P_ng_correct1ginp014
 --------------------
 Symbolic Z-matrix:
 Charge =  0 Multiplicity = 1

 SCF Done:  E(RB3LYP) =  -1064.41467777     A.U. after   13 cycles
 SCF Done:  E(RB3LYP) =  -1064.42069088     A.U. after   11 cycles
 SCF Done:  E(RB3LYP) =  -1064.42125098     A.U. after   10 cycles
 SCF Done:  E(RB3LYP) =  -1064.42143105     A.U. after   10 cycles
 SCF Done:  E(RB3LYP) =  -1064.42158950     A.U. after    9 cycles
 SCF Done:  E(RB3LYP) =  -1064.42165935     A.U. after   10 cycles
 SCF Done:  E(RB3LYP) =  -1064.42169033     A.U. after    8 cycles
 SCF Done:  E(RB3LYP) =  -1064.42170385     A.U. after    8 cycles
 SCF Done:  E(RB3LYP) =  -1064.42171064     A.U. after    8 cycles
 SCF Done:  E(RB3LYP) =  -1064.42171886     A.U. after    8 cycles
 SCF Done:  E(RB3LYP) =  -1064.42172439     A.U. after    8 cycles
 SCF Done:  E(RB3LYP) =  -1064.42172941     A.U. after    8 cycles
 SCF Done:  E(RB3LYP) =  -1064.42173275     A.U. after    8 cycles
 SCF Done:  E(RB3LYP) =  -1064.42173479     A.U. after    8 cycles
 SCF Done:  E(RB3LYP) =  -1064.42173582     A.U. after    7 cycles
 SCF Done:  E(RB3LYP) =  -1064.42173642     A.U. after    7 cycles
 SCF Done:  E(RB3LYP) =  -1064.42173678     A.U. after    6 cycles
 SCF Done:  E(RB3LYP) =  -1064.42173696     A.U. after    6 cycles
 SCF Done:  E(RB3LYP) =  -1064.42173701     A.U. after    6 cycles
 SCF Done:  E(RB3LYP) =  -1064.42173707     A.U. after    6 cycles
 Optimization completed.
    -- Stationary point found.

                         Standard orientation:
 ---------------------------------------------------------------------
 Center     Atomic      Atomic             Coordinates (Angstroms)
 Number     Number       Type             X           Y           Z
 ---------------------------------------------------------------------
      1          6           0       -2.307280    0.317972   -0.170330
      2          6           0       -0.972818   -0.051215   -0.841834
      3          6           0        0.180261    0.823128   -0.251662
      4          6           0       -0.124499    1.157304    1.241845
      5          6           0       -1.126960    0.273770    1.946268
      6          1           0       -2.468149    1.403391   -0.229202
      7          1           0       -0.764842   -1.079699   -0.522100
      8          1           0        0.798370    1.165096    1.820792
      9          1           0       -0.535861    2.173155    1.300635
     10          8           0       -2.235519   -0.047242    1.241085
     11          8           0       -1.025131   -0.101711    3.095476
     12          6           0       -3.561139   -0.378594   -0.705480
     13          6           0       -3.541690   -1.908892   -0.628687
     14          6           0       -1.037977   -0.040781   -2.374620
     15          8           0        1.433099    0.153285   -0.362321
     16         14           0        2.056303   -1.377372   -0.040854
     17          6           0        3.894877   -1.069957    0.212727
     18          6           0        1.305973   -2.174083    1.495617
     19          6           0        1.807524   -2.511608   -1.528899
     20          1           0        1.868306   -3.084608    1.735137
     21          1           0        1.347486   -1.517278    2.369548
     22          1           0        0.261012   -2.467935    1.353560
     23          1           0        2.331184   -3.461658   -1.369956
     24          1           0        0.752920   -2.744975   -1.708723
     25          1           0        2.211748   -2.059358   -2.440884
     26          1           0        4.333782   -0.571236   -0.657799
     27          1           0        4.074690   -0.436861    1.087868
     28          1           0        4.432034   -2.012880    0.364159
     29          1           0       -1.413077    0.909115   -2.767372
     30          1           0       -0.045495   -0.213708   -2.798738
     31          1           0       -1.694806   -0.832912   -2.741702
     32          1           0       -3.720425   -0.047159   -1.737210
     33          1           0       -4.410519    0.002413   -0.127235
     34          1           0       -2.753967   -2.345370   -1.251005
     35          1           0       -3.384507   -2.245265    0.399498
     36          1           0       -4.496121   -2.316321   -0.974925
     37          6           0        0.361302    2.152383   -1.034030
     38          6           0        1.387975    3.076544   -0.439337
     39          6           0        1.157682    4.341974   -0.085297
     40          1           0       -0.602700    2.670105   -1.105778
     41          1           0        0.669487    1.889642   -2.051843
     42          1           0        2.383212    2.654823   -0.310958
     43          1           0        1.941715    4.971132    0.325993
     44          1           0        0.177317    4.799232   -0.201413
 ---------------------------------------------------------------------

 The electronic state is 1-A.
 Alpha  occ. eigenvalues --  -66.14240 -19.18840 -19.13592 -19.13106 -10.31563
 Alpha  occ. eigenvalues --  -10.26482 -10.25440 -10.20352 -10.19747 -10.19149
 Alpha  occ. eigenvalues --  -10.18994 -10.18967 -10.18411 -10.17976 -10.17702
 Alpha  occ. eigenvalues --  -10.15887 -10.15761 -10.15721  -5.28291  -3.64393
 Alpha  occ. eigenvalues --   -3.64091  -3.64079  -1.09674  -1.01416  -1.00420
 Alpha  occ. eigenvalues --   -0.82867  -0.80233  -0.77357  -0.74840  -0.71238
 Alpha  occ. eigenvalues --   -0.69887  -0.69682  -0.67507  -0.67451  -0.64784
 Alpha  occ. eigenvalues --   -0.60324  -0.59812  -0.56181  -0.53903  -0.51806
 Alpha  occ. eigenvalues --   -0.50450  -0.48374  -0.46893  -0.46012  -0.44357
 Alpha  occ. eigenvalues --   -0.43967  -0.43475  -0.42783  -0.42497  -0.41386
 Alpha  occ. eigenvalues --   -0.40760  -0.40562  -0.40233  -0.40031  -0.38959
 Alpha  occ. eigenvalues --   -0.38779  -0.38576  -0.38157  -0.37674  -0.37195
 Alpha  occ. eigenvalues --   -0.36536  -0.36293  -0.35705  -0.34837  -0.34428
 Alpha  occ. eigenvalues --   -0.33774  -0.33405  -0.31489  -0.30721  -0.29055
 Alpha  occ. eigenvalues --   -0.28316  -0.26678  -0.26345  -0.25382
 Alpha virt. eigenvalues --    0.00807   0.01703   0.06053   0.07322   0.08423
 Alpha virt. eigenvalues --    0.08654   0.09548   0.10496   0.11434   0.12125
 Alpha virt. eigenvalues --    0.12323   0.12863   0.13135   0.13986   0.14649

 Mulliken charges:
               1
     1  C    0.160291
     2  C   -0.104387
     3  C    0.310854
     4  C   -0.295674
     5  C    0.595733
     6  H    0.108648
     7  H    0.116826
     8  H    0.149776
     9  H    0.152846
    10  O   -0.476903
    11  O   -0.506441
    12  C   -0.197705
    13  C   -0.331700
    14  C   -0.342567
    15  O   -0.635594
    16  Si   0.904238
    17  C   -0.532133
    18  C   -0.567121
    19  C   -0.547432
    20  H    0.121434
    21  H    0.131545
    22  H    0.122357
    23  H    0.119679
    24  H    0.116056
    25  H    0.119847
    26  H    0.121165
    27  H    0.120698
    28  H    0.117836
    29  H    0.117640
    30  H    0.127622
    31  H    0.115883
    32  H    0.112277
    33  H    0.115550
    34  H    0.109254
    35  H    0.126288
    36  H    0.110775
    37  C   -0.225213
    38  C   -0.034635
    39  C   -0.259222
    40  H    0.099692
    41  H    0.122784
    42  H    0.105391
    43  H    0.105531
    44  H    0.098213
 Sum of Mulliken charges =   0.00000

 Dipole moment (field-independent basis, Debye):
    X=             -0.2128    Y=              0.6601    Z=             -4.8165  Tot=              4.8661
 Quadrupole moment (field-independent basis, Debye-Ang):
   XX=           -114.1056   YY=           -112.7293   ZZ=           -132.3243
   XY=             -4.6418   XZ=              9.7412   YZ=              3.2190

 Normal termination of Gaussian 09 at Wed Feb  6 11:28:57 2019.
