 Gaussian 09, Revision D.01,
 Gaussian 09:  ES64L-G09RevD.01 24-Apr-2013

 ---------------------------------------------------------------
 # b3lyp/6-31g(d,p) Opt=(maxcycles=25) scrf=(solvent=chloroform)
 ---------------------------------------------------------------

 -------------
 P_ng_3ginp009
 -------------
 Symbolic Z-matrix:
 Charge =  0 Multiplicity = 1

 SCF Done:  E(RB3LYP) =  -1064.41589496     A.U. after   13 cycles
 SCF Done:  E(RB3LYP) =  -1064.42141507     A.U. after   11 cycles
 SCF Done:  E(RB3LYP) =  -1064.42220378     A.U. after   11 cycles
 SCF Done:  E(RB3LYP) =  -1064.42259904     A.U. after   10 cycles
 SCF Done:  E(RB3LYP) =  -1064.42292943     A.U. after    9 cycles
 SCF Done:  E(RB3LYP) =  -1064.42306291     A.U. after   10 cycles
 SCF Done:  E(RB3LYP) =  -1064.42314958     A.U. after    9 cycles
 SCF Done:  E(RB3LYP) =  -1064.42315842     A.U. after    9 cycles
 SCF Done:  E(RB3LYP) =  -1064.42317894     A.U. after    9 cycles
 SCF Done:  E(RB3LYP) =  -1064.42318263     A.U. after    8 cycles
 SCF Done:  E(RB3LYP) =  -1064.42318474     A.U. after    8 cycles
 SCF Done:  E(RB3LYP) =  -1064.42318468     A.U. after    8 cycles
 SCF Done:  E(RB3LYP) =  -1064.42318416     A.U. after    7 cycles
 SCF Done:  E(RB3LYP) =  -1064.42318355     A.U. after    7 cycles
 SCF Done:  E(RB3LYP) =  -1064.42318317     A.U. after    7 cycles
 SCF Done:  E(RB3LYP) =  -1064.42318285     A.U. after    6 cycles
 Optimization completed.
    -- Stationary point found.

                         Standard orientation:
 ---------------------------------------------------------------------
 Center     Atomic      Atomic             Coordinates (Angstroms)
 Number     Number       Type             X           Y           Z
 ---------------------------------------------------------------------
      1          6           0       -2.270076    0.471703   -0.508490
      2          6           0       -0.980353    1.190916   -0.966451
      3          6           0        0.257286    0.778432   -0.131918
      4          6           0       -0.075824    1.057927    1.340651
      5          6           0       -1.410637    0.529886    1.819683
      6          1           0       -3.112626    1.083097   -0.853848
      7          1           0       -1.144195    2.252478   -0.740132
      8          1           0        0.692227    0.661004    2.006051
      9          1           0       -0.098874    2.143466    1.499054
     10          8           0       -2.435053    0.471966    0.944652
     11          8           0       -1.618420    0.245000    2.981968
     12          6           0       -2.504585   -0.963563   -0.996435
     13          6           0       -3.892955   -1.494834   -0.624794
     14          6           0       -0.784662    1.062951   -2.483411
     15          8           0        0.463830   -0.621024   -0.324357
     16         14           0        1.695290   -1.721831    0.010007
     17          6           0        0.848348   -3.395284   -0.132848
     18          6           0        3.078975   -1.602310   -1.268419
     19          6           0        2.411869   -1.514157    1.744528
     20          1           0        3.636900   -0.663354   -1.199602
     21          1           0        3.792357   -2.421689   -1.120819
     22          1           0        2.685056   -1.686747   -2.286938
     23          1           0        1.635506   -1.583188    2.513645
     24          1           0        3.135633   -2.315813    1.934234
     25          1           0        2.939905   -0.564063    1.877776
     26          1           0        0.057765   -3.504460    0.616737
     27          1           0        0.395393   -3.528283   -1.120847
     28          1           0        1.567390   -4.208396    0.017382
     29          1           0       -0.055704    1.790708   -2.849432
     30          1           0       -0.431926    0.065602   -2.755808
     31          1           0       -1.723297    1.251556   -3.014532
     32          1           0       -1.723261   -1.609874   -0.591344
     33          1           0       -2.391847   -0.976161   -2.085703
     34          1           0       -4.028897   -2.514047   -0.999600
     35          1           0       -4.032049   -1.510596    0.459207
     36          1           0       -4.686613   -0.873200   -1.055825
     37          6           0        1.539540    1.558528   -0.541407
     38          6           0        1.428267    3.059838   -0.539628
     39          6           0        2.061772    3.868065    0.312843
     40          1           0        1.827036    1.211192   -1.540271
     41          1           0        2.341865    1.260124    0.143479
     42          1           0        0.792554    3.503726   -1.305219
     43          1           0        1.954262    4.947444    0.261647
     44          1           0        2.716730    3.478987    1.089087
 ---------------------------------------------------------------------

 The electronic state is 1-A.
 Alpha  occ. eigenvalues --  -66.14406 -19.18277 -19.13791 -19.12621 -10.31392
 Alpha  occ. eigenvalues --  -10.26122 -10.24903 -10.20049 -10.19725 -10.19473
 Alpha  occ. eigenvalues --  -10.19390 -10.18620 -10.18170 -10.17865 -10.17007
 Alpha  occ. eigenvalues --  -10.16115 -10.15961 -10.15792  -5.28437  -3.64537
 Alpha  occ. eigenvalues --   -3.64242  -3.64226  -1.09042  -1.00907  -1.00411
 Alpha  occ. eigenvalues --   -0.82770  -0.80025  -0.77455  -0.74759  -0.71130
 Alpha  occ. eigenvalues --   -0.70318  -0.69136  -0.67723  -0.67506  -0.63991
 Alpha  occ. eigenvalues --   -0.61091  -0.59807  -0.55987  -0.53653  -0.51370
 Alpha  occ. eigenvalues --   -0.49113  -0.47422  -0.46889  -0.46106  -0.45533
 Alpha  occ. eigenvalues --   -0.44030  -0.43355  -0.42551  -0.42221  -0.41091
 Alpha  occ. eigenvalues --   -0.40620  -0.40458  -0.40343  -0.39692  -0.39273
 Alpha  occ. eigenvalues --   -0.39199  -0.38488  -0.38120  -0.37825  -0.37051
 Alpha  occ. eigenvalues --   -0.36860  -0.36143  -0.35683  -0.34541  -0.33948
 Alpha  occ. eigenvalues --   -0.33411  -0.32184  -0.31378  -0.30369  -0.28456
 Alpha  occ. eigenvalues --   -0.28176  -0.27239  -0.26727  -0.25189
 Alpha virt. eigenvalues --    0.00498   0.01570   0.06610   0.07115   0.08730
 Alpha virt. eigenvalues --    0.09325   0.10020   0.10809   0.11504   0.12067
 Alpha virt. eigenvalues --    0.12364   0.12796   0.13807   0.14044   0.14839

 Mulliken charges:
               1
     1  C    0.164301
     2  C   -0.092584
     3  C    0.298337
     4  C   -0.272284
     5  C    0.594989
     6  H    0.109377
     7  H    0.106131
     8  H    0.133267
     9  H    0.148682
    10  O   -0.482538
    11  O   -0.505857
    12  C   -0.181849
    13  C   -0.329785
    14  C   -0.342782
    15  O   -0.639049
    16  Si   0.915788
    17  C   -0.536779
    18  C   -0.546077
    19  C   -0.558171
    20  H    0.117741
    21  H    0.119575
    22  H    0.119242
    23  H    0.129045
    24  H    0.122438
    25  H    0.118845
    26  H    0.123996
    27  H    0.120240
    28  H    0.118603
    29  H    0.110733
    30  H    0.132702
    31  H    0.111603
    32  H    0.133071
    33  H    0.101650
    34  H    0.102691
    35  H    0.122547
    36  H    0.100718
    37  C   -0.247945
    38  C   -0.041634
    39  C   -0.255442
    40  H    0.126613
    41  H    0.112066
    42  H    0.101363
    43  H    0.110480
    44  H    0.105944
 Sum of Mulliken charges =   0.00000

 Dipole moment (field-independent basis, Debye):
    X=              3.2551    Y=              1.2141    Z=             -4.6797  Tot=              5.8283
 Quadrupole moment (field-independent basis, Debye-Ang):
   XX=           -119.8015   YY=           -110.0169   ZZ=           -129.7277
   XY=             -1.9985   XZ=             13.0296   YZ=             -1.1803

 Normal termination of Gaussian 09 at Wed Feb  6 11:17:29 2019.
