 Gaussian 09, Revision D.01,
 Gaussian 09:  EM64L-G09RevD.01 24-Apr-2013

 ----------------------------------------------------------------------
 # mPW1PW91/6-311g(d) geom=checkpoint nmr=giao scrf=(solvent=chloroform
 )
 ----------------------------------------------------------------------

 ------------
 AT3_1ginp010
 ------------
 Structure from the checkpoint file:  "AT3_1ginp010.chk"
 Charge =  0 Multiplicity = 1

                         Standard orientation:
 ---------------------------------------------------------------------
 Center     Atomic      Atomic             Coordinates (Angstroms)
 Number     Number       Type             X           Y           Z
 ---------------------------------------------------------------------
      1          6           0        1.168763    2.467278    1.819922
      2          6           0        2.132373    1.644519    0.953943
      3          6           0        1.438244    0.572671    0.094463
      4          6           0        2.405595   -0.512397   -0.447568
      5          6           0        2.789736   -1.538947    0.629430
      6          8           0        1.669599   -2.168978    1.248601
      7          7           0        0.745265    1.232431   -1.031328
      8          6           0       -0.331361    0.464984   -1.669775
      9          6           0       -3.543473   -0.826743    0.969536
     10          6           0       -2.596740   -1.755968    0.537525
     11          6           0       -1.584116   -1.317878   -0.306438
     12          6           0       -1.453787   -0.004310   -0.754891
     13          6           0       -2.424978    0.878640   -0.276994
     14          6           0       -3.464662    0.507583    0.564403
     15          1           0       -4.345015   -1.142464    1.628798
     16          1           0       -2.631705   -2.795404    0.842386
     17          1           0       -4.185120    1.249638    0.888501
     18          9           0       -0.658206   -2.230951   -0.723351
     19          9           0       -2.332061    2.175015   -0.665744
     20          1           0        0.618949    1.823578    2.514984
     21          1           0        1.713681    3.210016    2.411174
     22          1           0        0.429078    3.012891    1.223069
     23          1           0        2.705527    2.312142    0.299306
     24          1           0        2.858747    1.155203    1.612404
     25          1           0        1.849328   -1.077375   -1.209028
     26          1           0        3.349362   -1.061624    1.442399
     27          1           0        3.459945   -2.288808    0.179262
     28          1           0        1.077981   -2.473652    0.545487
     29          1           0       -0.761142    1.100584   -2.449372
     30          1           0        0.092838   -0.406550   -2.172012
     31          1           0        0.721781    0.050396    0.748433
     32          6           0        3.652427    0.059648   -1.134469
     33          1           0        4.329972    0.537714   -0.418768
     34          1           0        4.215263   -0.729484   -1.644227
     35          1           0        3.362569    0.806848   -1.877767
     36          1           0        0.348579    2.110108   -0.707209
 ---------------------------------------------------------------------

 SCF Done:  E(RmPW1PW91) =  -836.464416474     A.U. after   12 cycles

      1  C    Isotropic =   175.5364   Anisotropy =    22.2918

      2  C    Isotropic =   164.5245   Anisotropy =    16.1229

      3  C    Isotropic =   132.4035   Anisotropy =    20.8495

      4  C    Isotropic =   148.6007   Anisotropy =    17.0065

      5  C    Isotropic =   120.3235   Anisotropy =    66.0708

      6  O    Isotropic =   301.0941   Anisotropy =    89.5898

      7  N    Isotropic =   205.1800   Anisotropy =    48.8734

      8  C    Isotropic =   148.5895   Anisotropy =    47.2717

      9  C    Isotropic =    53.8968   Anisotropy =   188.8005

     10  C    Isotropic =    72.8113   Anisotropy =   146.0112

     11  C    Isotropic =    18.0185   Anisotropy =    93.5673

     12  C    Isotropic =    64.7116   Anisotropy =   141.8121

     13  C    Isotropic =    17.6079   Anisotropy =    96.3574

     14  C    Isotropic =    71.4762   Anisotropy =   148.1879

     15  H    Isotropic =    24.6357   Anisotropy =     3.0836

     16  H    Isotropic =    25.1739   Anisotropy =     5.3254

     17  H    Isotropic =    25.0844   Anisotropy =     4.7932

     18  F    Isotropic =   301.3595   Anisotropy =   111.2823

     19  F    Isotropic =   295.7084   Anisotropy =   131.0002

     20  H    Isotropic =    31.7175   Anisotropy =     7.5961

     21  H    Isotropic =    31.1118   Anisotropy =    12.0627

     22  H    Isotropic =    31.3844   Anisotropy =     6.7649

     23  H    Isotropic =    30.9748   Anisotropy =     6.9476

     24  H    Isotropic =    30.7355   Anisotropy =     7.3410

     25  H    Isotropic =    30.0197   Anisotropy =     4.5532

     26  H    Isotropic =    28.7862   Anisotropy =     5.2543

     27  H    Isotropic =    28.3033   Anisotropy =     7.4007

     28  H    Isotropic =    31.7785   Anisotropy =    17.1899

     29  H    Isotropic =    28.1616   Anisotropy =     8.4581

     30  H    Isotropic =    28.1845   Anisotropy =     5.2516

     31  H    Isotropic =    29.3805   Anisotropy =     3.3112

     32  C    Isotropic =   177.6082   Anisotropy =    20.5393

     33  H    Isotropic =    31.7123   Anisotropy =     8.6450

     34  H    Isotropic =    31.5996   Anisotropy =    10.9566

     35  H    Isotropic =    30.7750   Anisotropy =     8.0341

     36  H    Isotropic =    30.9935   Anisotropy =    11.5948

 The electronic state is 1-A.
 Alpha  occ. eigenvalues --  -24.80757 -24.80149 -19.20462 -14.38032 -10.34019
 Alpha  occ. eigenvalues --  -10.33871 -10.27124 -10.27091 -10.26569 -10.26313
 Alpha  occ. eigenvalues --  -10.25664 -10.25589 -10.25553 -10.23455 -10.22767
 Alpha  occ. eigenvalues --  -10.22024 -10.21588  -1.27300  -1.26996  -1.04525
 Alpha  occ. eigenvalues --   -0.94099  -0.90755  -0.82914  -0.80274  -0.79023
 Alpha  occ. eigenvalues --   -0.78275  -0.71712  -0.69317  -0.67910  -0.66089
 Alpha  occ. eigenvalues --   -0.64006  -0.63118  -0.59088  -0.56924  -0.55566
 Alpha  occ. eigenvalues --   -0.52752  -0.51780  -0.51541  -0.50671  -0.50127
 Alpha  occ. eigenvalues --   -0.49321  -0.48530  -0.47807  -0.46868  -0.45613
 Alpha  occ. eigenvalues --   -0.44232  -0.43324  -0.42501  -0.41833  -0.41602
 Alpha  occ. eigenvalues --   -0.40748  -0.40023  -0.39256  -0.38314  -0.38150
 Alpha  occ. eigenvalues --   -0.38031  -0.36889  -0.35342  -0.33895  -0.32985
 Alpha  occ. eigenvalues --   -0.32107  -0.28486  -0.27875  -0.27272  -0.24145
 Alpha virt. eigenvalues --   -0.02449  -0.01193   0.04965   0.05941   0.06370
 Alpha virt. eigenvalues --    0.06851   0.07701   0.10018   0.10326   0.10634
 Alpha virt. eigenvalues --    0.11364   0.11765   0.12588   0.12841   0.13240

 Mulliken charges:
               1
     1  C   -0.662415
     2  C   -0.487862
     3  C   -0.080602
     4  C   -0.339228
     5  C   -0.166977
     6  O   -0.595480
     7  N   -0.537668
     8  C   -0.399386
     9  C   -0.211730
    10  C   -0.255847
    11  C    0.304507
    12  C   -0.142893
    13  C    0.332663
    14  C   -0.262440
    15  H    0.236300
    16  H    0.241335
    17  H    0.239146
    18  F   -0.268043
    19  F   -0.250305
    20  H    0.229783
    21  H    0.229970
    22  H    0.219007
    23  H    0.232689
    24  H    0.235833
    25  H    0.221960
    26  H    0.219371
    27  H    0.209758
    28  H    0.402129
    29  H    0.259458
    30  H    0.263995
    31  H    0.232452
    32  C   -0.667010
    33  H    0.225103
    34  H    0.224568
    35  H    0.238654
    36  H    0.329203
 Sum of Mulliken charges =   0.00000

 Dipole moment (field-independent basis, Debye):
    X=             -2.1073    Y=              0.0725    Z=             -0.0306  Tot=              2.1088
 Quadrupole moment (field-independent basis, Debye-Ang):
   XX=            -92.2323   YY=           -102.7537   ZZ=           -105.1814
   XY=              3.7054   XZ=             -5.6580   YZ=              4.8666

 Normal termination of Gaussian 09 at Wed Mar  6 11:59:21 2019.
