 Gaussian 09, Revision D.01,
 Gaussian 09:  EM64L-G09RevD.01 24-Apr-2013

 ----------------------------------------------------------------------
 # mPW1PW91/6-311g(d) geom=checkpoint nmr=giao scrf=(solvent=chloroform
 )
 ----------------------------------------------------------------------

 ------------
 AT3_2ginp003
 ------------
 Structure from the checkpoint file:  "AT3_2ginp003.chk"
 Charge =  0 Multiplicity = 1

                         Standard orientation:
 ---------------------------------------------------------------------
 Center     Atomic      Atomic             Coordinates (Angstroms)
 Number     Number       Type             X           Y           Z
 ---------------------------------------------------------------------
      1          6           0       -0.787830    2.592005    1.426916
      2          6           0       -1.894842    1.617405    1.001238
      3          6           0       -1.363270    0.293253    0.421043
      4          6           0       -2.405781   -0.858946    0.393822
      5          6           0       -3.656266   -0.518779   -0.435657
      6          8           0       -3.372640   -0.281120   -1.806711
      7          7           0       -0.867252    0.552593   -0.956576
      8          6           0        0.197268   -0.337124   -1.444942
      9          6           0        3.918894   -0.222366    0.804293
     10          6           0        3.201509   -1.415531    0.722781
     11          6           0        2.011953   -1.426715    0.002025
     12          6           0        1.493909   -0.307479   -0.651991
     13          6           0        2.257435    0.855449   -0.529892
     14          6           0        3.448660    0.933472    0.176454
     15          1           0        4.848734   -0.190477    1.362175
     16          1           0        3.543680   -2.324531    1.203772
     17          1           0        3.984718    1.874087    0.225606
     18          9           0        1.317314   -2.586867   -0.072371
     19          9           0        1.786959    1.978141   -1.137358
     20          1           0       -1.215589    3.531656    1.789654
     21          1           0       -0.183162    2.165649    2.234719
     22          1           0       -0.105432    2.840562    0.606672
     23          1           0       -2.524096    1.403775    1.870845
     24          1           0       -2.547277    2.093877    0.258518
     25          1           0       -1.920685   -1.709548   -0.104952
     26          1           0       -4.172141    0.344105    0.021411
     27          1           0       -4.358919   -1.360916   -0.385358
     28          1           0       -2.503742    0.178177   -1.805268
     29          1           0       -0.176284   -1.361631   -1.468184
     30          1           0        0.405823   -0.052090   -2.481360
     31          1           0       -0.533292   -0.039570    1.067925
     32          6           0       -2.791585   -1.321520    1.806001
     33          1           0       -3.389572   -0.572947    2.336913
     34          1           0       -3.385026   -2.240163    1.760843
     35          1           0       -1.903135   -1.528357    2.412103
     36          1           0       -0.531499    1.508936   -1.021302
 ---------------------------------------------------------------------

 SCF Done:  E(RmPW1PW91) =  -836.470058761     A.U. after   12 cycles

      1  C    Isotropic =   175.7209   Anisotropy =    22.0572

      2  C    Isotropic =   164.9175   Anisotropy =    16.2861

      3  C    Isotropic =   123.7746   Anisotropy =    15.9424

      4  C    Isotropic =   151.4972   Anisotropy =    18.6906

      5  C    Isotropic =   119.2662   Anisotropy =    67.6059

      6  O    Isotropic =   302.4396   Anisotropy =    70.5280

      7  N    Isotropic =   199.1250   Anisotropy =    32.1514

      8  C    Isotropic =   148.1823   Anisotropy =    44.9756

      9  C    Isotropic =    53.5615   Anisotropy =   189.3362

     10  C    Isotropic =    72.4390   Anisotropy =   146.4475

     11  C    Isotropic =    18.2409   Anisotropy =    99.3238

     12  C    Isotropic =    66.2685   Anisotropy =   137.4875

     13  C    Isotropic =    17.0219   Anisotropy =    94.2770

     14  C    Isotropic =    72.0209   Anisotropy =   147.2517

     15  H    Isotropic =    24.6215   Anisotropy =     3.0204

     16  H    Isotropic =    25.1415   Anisotropy =     4.7233

     17  H    Isotropic =    25.1072   Anisotropy =     5.0756

     18  F    Isotropic =   294.3233   Anisotropy =   125.7988

     19  F    Isotropic =   296.2130   Anisotropy =   132.3021

     20  H    Isotropic =    31.0856   Anisotropy =    11.8467

     21  H    Isotropic =    31.7676   Anisotropy =     7.7130

     22  H    Isotropic =    31.2171   Anisotropy =     6.9626

     23  H    Isotropic =    30.6597   Anisotropy =     7.6603

     24  H    Isotropic =    30.7621   Anisotropy =     7.0892

     25  H    Isotropic =    29.7005   Anisotropy =     4.4988

     26  H    Isotropic =    28.2671   Anisotropy =     4.0125

     27  H    Isotropic =    28.5852   Anisotropy =     7.0301

     28  H    Isotropic =    27.0978   Anisotropy =    24.8327

     29  H    Isotropic =    27.9050   Anisotropy =     5.9724

     30  H    Isotropic =    28.2535   Anisotropy =     8.1721

     31  H    Isotropic =    29.7652   Anisotropy =     5.2381

     32  C    Isotropic =   173.0625   Anisotropy =    28.3158

     33  H    Isotropic =    31.5959   Anisotropy =     7.9900

     34  H    Isotropic =    31.2971   Anisotropy =    10.9655

     35  H    Isotropic =    31.5723   Anisotropy =     8.4885

     36  H    Isotropic =    30.3972   Anisotropy =    10.5214

 The electronic state is 1-A.
 Alpha  occ. eigenvalues --  -24.80619 -24.80120 -19.17944 -14.39741 -10.34106
 Alpha  occ. eigenvalues --  -10.34103 -10.27756 -10.26858 -10.26844 -10.26460
 Alpha  occ. eigenvalues --  -10.26338 -10.25700 -10.25642 -10.23642 -10.23378
 Alpha  occ. eigenvalues --  -10.22381 -10.22183  -1.27323  -1.27063  -1.02617
 Alpha  occ. eigenvalues --   -0.95088  -0.90967  -0.83371  -0.80595  -0.79115
 Alpha  occ. eigenvalues --   -0.78605  -0.72263  -0.68794  -0.68019  -0.66139
 Alpha  occ. eigenvalues --   -0.64398  -0.63331  -0.59081  -0.57608  -0.55775
 Alpha  occ. eigenvalues --   -0.52655  -0.51821  -0.51557  -0.50905  -0.50442
 Alpha  occ. eigenvalues --   -0.49446  -0.49066  -0.47032  -0.46937  -0.45900
 Alpha  occ. eigenvalues --   -0.44348  -0.42731  -0.42670  -0.42441  -0.41726
 Alpha  occ. eigenvalues --   -0.40691  -0.40204  -0.39754  -0.38921  -0.38452
 Alpha  occ. eigenvalues --   -0.38028  -0.37171  -0.35474  -0.34593  -0.33251
 Alpha  occ. eigenvalues --   -0.32741  -0.28017  -0.27345  -0.26562  -0.25441
 Alpha virt. eigenvalues --   -0.02654  -0.01289   0.05000   0.05635   0.06414
 Alpha virt. eigenvalues --    0.07081   0.08155   0.09929   0.10040   0.11087
 Alpha virt. eigenvalues --    0.11340   0.11593   0.12116   0.12362   0.13052

 Mulliken charges:
               1
     1  C   -0.664091
     2  C   -0.494078
     3  C   -0.092658
     4  C   -0.312824
     5  C   -0.164351
     6  O   -0.618649
     7  N   -0.618105
     8  C   -0.366445
     9  C   -0.208662
    10  C   -0.269526
    11  C    0.328900
    12  C   -0.175000
    13  C    0.337961
    14  C   -0.261052
    15  H    0.236598
    16  H    0.239815
    17  H    0.240700
    18  F   -0.248048
    19  F   -0.254748
    20  H    0.232878
    21  H    0.228004
    22  H    0.223408
    23  H    0.244429
    24  H    0.237595
    25  H    0.230533
    26  H    0.194702
    27  H    0.211043
    28  H    0.411718
    29  H    0.267946
    30  H    0.266575
    31  H    0.237976
    32  C   -0.663189
    33  H    0.225485
    34  H    0.234231
    35  H    0.230901
    36  H    0.350027
 Sum of Mulliken charges =   0.00000

 Dipole moment (field-independent basis, Debye):
    X=              4.5500    Y=              1.0010    Z=              3.4925  Tot=              5.8225
 Quadrupole moment (field-independent basis, Debye-Ang):
   XX=           -102.0621   YY=           -101.3166   ZZ=           -106.1012
   XY=             -1.3996   XZ=             -6.7665   YZ=             -1.3494

 Normal termination of Gaussian 09 at Wed Mar  6 22:32:53 2019.
