 Gaussian 09, Revision D.01,
 Gaussian 09:  EM64L-G09RevD.01 24-Apr-2013

 ----------------------------------------------------------------------
 # mPW1PW91/6-311g(d) geom=checkpoint nmr=giao scrf=(solvent=chloroform
 )
 ----------------------------------------------------------------------

 ------------
 AT3_2ginp004
 ------------
 Structure from the checkpoint file:  "AT3_2ginp004.chk"
 Charge =  0 Multiplicity = 1

                         Standard orientation:
 ---------------------------------------------------------------------
 Center     Atomic      Atomic             Coordinates (Angstroms)
 Number     Number       Type             X           Y           Z
 ---------------------------------------------------------------------
      1          6           0        3.032574    2.477222   -0.464592
      2          6           0        2.396969    1.580756    0.604545
      3          6           0        1.597764    0.383370    0.049218
      4          6           0        2.437097   -0.620774   -0.785262
      5          6           0        1.528823   -1.674291   -1.451168
      6          8           0        0.955618   -2.593222   -0.532689
      7          7           0        0.854502   -0.347906    1.109038
      8          6           0       -0.345199    0.327422    1.638801
      9          6           0       -3.670279    0.155667   -1.142672
     10          6           0       -3.330769   -0.972524   -0.393264
     11          6           0       -2.258230   -0.882672    0.483826
     12          6           0       -1.499487    0.276916    0.663827
     13          6           0       -1.881869    1.368050   -0.117610
     14          6           0       -2.945742    1.340510   -1.011954
     15          1           0       -4.504035    0.109322   -1.835328
     16          1           0       -3.876622   -1.904819   -0.478888
     17          1           0       -3.185880    2.227531   -1.586470
     18          9           0       -1.925933   -1.969595    1.216764
     19          9           0       -1.166206    2.513929   -0.002887
     20          1           0        3.504780    3.351793   -0.006017
     21          1           0        3.802632    1.953040   -1.039215
     22          1           0        2.278577    2.841191   -1.171784
     23          1           0        3.171274    1.215901    1.291812
     24          1           0        1.717621    2.192693    1.209648
     25          1           0        2.886650   -0.045873   -1.605883
     26          1           0        2.118842   -2.261492   -2.166025
     27          1           0        0.748013   -1.152872   -2.032769
     28          1           0        0.641360   -2.025740    0.204118
     29          1           0       -0.633744   -0.206198    2.548360
     30          1           0       -0.165275    1.373195    1.917601
     31          1           0        0.834270    0.785904   -0.629080
     32          6           0        3.570451   -1.293472    0.004689
     33          1           0        4.261348   -0.564597    0.438814
     34          1           0        3.175563   -1.919041    0.810281
     35          1           0        4.152058   -1.947497   -0.653475
     36          1           0        1.482753   -0.537417    1.887346
 ---------------------------------------------------------------------

 SCF Done:  E(RmPW1PW91) =  -836.469678940     A.U. after   12 cycles

      1  C    Isotropic =   175.9225   Anisotropy =    20.7023

      2  C    Isotropic =   163.2829   Anisotropy =    22.2666

      3  C    Isotropic =   124.4100   Anisotropy =    18.8344

      4  C    Isotropic =   151.2341   Anisotropy =     4.3950

      5  C    Isotropic =   115.7859   Anisotropy =    38.3371

      6  O    Isotropic =   307.5144   Anisotropy =    93.1999

      7  N    Isotropic =   197.8814   Anisotropy =    34.4919

      8  C    Isotropic =   149.4188   Anisotropy =    48.3357

      9  C    Isotropic =    53.1827   Anisotropy =   189.7404

     10  C    Isotropic =    71.7062   Anisotropy =   147.8662

     11  C    Isotropic =    17.3012   Anisotropy =   100.0130

     12  C    Isotropic =    66.9630   Anisotropy =   139.5866

     13  C    Isotropic =    17.8282   Anisotropy =    99.0714

     14  C    Isotropic =    73.0487   Anisotropy =   145.6030

     15  H    Isotropic =    24.5518   Anisotropy =     3.0443

     16  H    Isotropic =    25.0448   Anisotropy =     5.0389

     17  H    Isotropic =    25.1048   Anisotropy =     5.0793

     18  F    Isotropic =   294.4209   Anisotropy =   135.6891

     19  F    Isotropic =   296.6378   Anisotropy =   117.6528

     20  H    Isotropic =    31.0072   Anisotropy =    11.4788

     21  H    Isotropic =    31.2359   Anisotropy =     7.9654

     22  H    Isotropic =    31.4087   Anisotropy =     8.5732

     23  H    Isotropic =    30.9000   Anisotropy =     5.8858

     24  H    Isotropic =    30.0307   Anisotropy =     5.3562

     25  H    Isotropic =    30.6773   Anisotropy =     6.7524

     26  H    Isotropic =    28.6160   Anisotropy =     8.1405

     27  H    Isotropic =    28.6902   Anisotropy =     4.0580

     28  H    Isotropic =    28.1199   Anisotropy =    22.9025

     29  H    Isotropic =    28.4224   Anisotropy =     8.0995

     30  H    Isotropic =    28.0726   Anisotropy =     6.1235

     31  H    Isotropic =    29.4983   Anisotropy =     6.1610

     32  C    Isotropic =   178.8190   Anisotropy =    16.8127

     33  H    Isotropic =    31.2857   Anisotropy =     8.1213

     34  H    Isotropic =    30.9564   Anisotropy =     6.2465

     35  H    Isotropic =    31.3801   Anisotropy =    11.7456

     36  H    Isotropic =    31.3558   Anisotropy =    10.4885

 The electronic state is 1-A.
 Alpha  occ. eigenvalues --  -24.80113 -24.79910 -19.17986 -14.39597 -10.33924
 Alpha  occ. eigenvalues --  -10.33813 -10.27739 -10.26663 -10.26627 -10.26275
 Alpha  occ. eigenvalues --  -10.26253 -10.25428 -10.25357 -10.23540 -10.23043
 Alpha  occ. eigenvalues --  -10.22153 -10.21658  -1.26988  -1.26839  -1.02626
 Alpha  occ. eigenvalues --   -0.94807  -0.90727  -0.83166  -0.80327  -0.78849
 Alpha  occ. eigenvalues --   -0.78083  -0.72176  -0.69585  -0.67666  -0.65899
 Alpha  occ. eigenvalues --   -0.63922  -0.62536  -0.58713  -0.57756  -0.55401
 Alpha  occ. eigenvalues --   -0.52242  -0.51998  -0.51565  -0.50193  -0.49291
 Alpha  occ. eigenvalues --   -0.49069  -0.48696  -0.47649  -0.46652  -0.46014
 Alpha  occ. eigenvalues --   -0.44409  -0.43457  -0.42653  -0.41826  -0.41109
 Alpha  occ. eigenvalues --   -0.40722  -0.39694  -0.38865  -0.38196  -0.37917
 Alpha  occ. eigenvalues --   -0.37668  -0.37051  -0.36477  -0.34053  -0.33037
 Alpha  occ. eigenvalues --   -0.32855  -0.27810  -0.27048  -0.26635  -0.25014
 Alpha virt. eigenvalues --   -0.02489  -0.00959   0.05026   0.05664   0.06266
 Alpha virt. eigenvalues --    0.07373   0.07840   0.09881   0.10568   0.10983
 Alpha virt. eigenvalues --    0.11443   0.11642   0.12400   0.12999   0.13092

 Mulliken charges:
               1
     1  C   -0.670018
     2  C   -0.440079
     3  C   -0.127148
     4  C   -0.309982
     5  C   -0.188479
     6  O   -0.610673
     7  N   -0.613286
     8  C   -0.369601
     9  C   -0.206035
    10  C   -0.266043
    11  C    0.343922
    12  C   -0.142715
    13  C    0.326630
    14  C   -0.270702
    15  H    0.235618
    16  H    0.239850
    17  H    0.238485
    18  F   -0.244371
    19  F   -0.252311
    20  H    0.229729
    21  H    0.231226
    22  H    0.226076
    23  H    0.221064
    24  H    0.232909
    25  H    0.233362
    26  H    0.213961
    27  H    0.196220
    28  H    0.412907
    29  H    0.255600
    30  H    0.248218
    31  H    0.253330
    32  C   -0.663175
    33  H    0.231138
    34  H    0.226788
    35  H    0.230535
    36  H    0.347049
 Sum of Mulliken charges =   0.00000

 Dipole moment (field-independent basis, Debye):
    X=             -0.7144    Y=              3.5990    Z=              0.3679  Tot=              3.6876
 Quadrupole moment (field-independent basis, Debye-Ang):
   XX=            -89.2617   YY=           -115.6956   ZZ=            -95.3892
   XY=              3.0763   XZ=              6.8557   YZ=             -1.6420

 Normal termination of Gaussian 09 at Wed Mar  6 12:39:55 2019.
