 Gaussian 09, Revision D.01,
 Gaussian 09:  EM64L-G09RevD.01 24-Apr-2013

 ----------------------------------------------------------------------
 # mPW1PW91/6-311g(d) geom=checkpoint nmr=giao scrf=(solvent=chloroform
 )
 ----------------------------------------------------------------------

 ------------
 AT3_1ginp008
 ------------
 Structure from the checkpoint file:  "AT3_1ginp008.chk"
 Charge =  0 Multiplicity = 1

                         Standard orientation:
 ---------------------------------------------------------------------
 Center     Atomic      Atomic             Coordinates (Angstroms)
 Number     Number       Type             X           Y           Z
 ---------------------------------------------------------------------
      1          6           0       -0.257045   -2.511624    1.474527
      2          6           0       -1.562173   -1.739388    1.243858
      3          6           0       -1.372915   -0.341976    0.620849
      4          6           0       -2.639466    0.546657    0.779877
      5          6           0       -3.848254    0.006077   -0.009690
      6          8           0       -3.661351    0.067315   -1.418217
      7          7           0       -0.983732   -0.490424   -0.810575
      8          6           0        0.046009    0.430514   -1.323140
      9          6           0        3.932040    0.202975    0.619445
     10          6           0        3.161590    1.356917    0.760200
     11          6           0        1.920247    1.406274    0.134845
     12          6           0        1.398077    0.362819   -0.631250
     13          6           0        2.215559   -0.765177   -0.728472
     14          6           0        3.461297   -0.878515   -0.129082
     15          1           0        4.903299    0.142849    1.098923
     16          1           0        3.502571    2.207411    1.339053
     17          1           0        4.037499   -1.788221   -0.251276
     18          9           0        1.175831    2.530191    0.277802
     19          9           0        1.739046   -1.818203   -1.445053
     20          1           0        0.408091   -1.965609    2.152189
     21          1           0       -0.462150   -3.488873    1.922466
     22          1           0        0.294763   -2.690239    0.545878
     23          1           0       -2.232182   -2.331551    0.607088
     24          1           0       -2.078942   -1.621625    2.203064
     25          1           0       -2.906004    0.494178    1.845436
     26          1           0       -4.733281    0.610259    0.227012
     27          1           0       -4.074801   -1.022919    0.314623
     28          1           0       -2.732362   -0.223828   -1.547852
     29          1           0        0.181879    0.198122   -2.384115
     30          1           0       -0.325720    1.452426   -1.264462
     31          1           0       -0.560195    0.153254    1.176692
     32          6           0       -2.390083    2.023373    0.434635
     33          1           0       -2.331331    2.165668   -0.647615
     34          1           0       -3.216943    2.643772    0.797053
     35          1           0       -1.464111    2.396170    0.883857
     36          1           0       -0.656347   -1.438234   -0.972600
 ---------------------------------------------------------------------

 SCF Done:  E(RmPW1PW91) =  -836.468161968     A.U. after   12 cycles

      1  C    Isotropic =   175.8913   Anisotropy =    21.2135

      2  C    Isotropic =   156.9199   Anisotropy =    27.6237

      3  C    Isotropic =   123.1727   Anisotropy =     9.8146

      4  C    Isotropic =   143.8867   Anisotropy =    11.8364

      5  C    Isotropic =   121.7468   Anisotropy =    56.0957

      6  O    Isotropic =   311.7769   Anisotropy =    98.7061

      7  N    Isotropic =   201.2943   Anisotropy =    34.3051

      8  C    Isotropic =   144.6339   Anisotropy =    50.4978

      9  C    Isotropic =    53.4376   Anisotropy =   189.3465

     10  C    Isotropic =    72.3376   Anisotropy =   146.4264

     11  C    Isotropic =    18.3687   Anisotropy =    98.6290

     12  C    Isotropic =    66.4041   Anisotropy =   139.3522

     13  C    Isotropic =    17.0161   Anisotropy =    95.3910

     14  C    Isotropic =    71.9816   Anisotropy =   147.6864

     15  H    Isotropic =    24.6216   Anisotropy =     2.9795

     16  H    Isotropic =    25.0997   Anisotropy =     4.8925

     17  H    Isotropic =    25.1160   Anisotropy =     5.0144

     18  F    Isotropic =   297.9022   Anisotropy =   118.0824

     19  F    Isotropic =   295.9112   Anisotropy =   133.9223

     20  H    Isotropic =    31.9612   Anisotropy =     6.7089

     21  H    Isotropic =    31.2332   Anisotropy =    11.8151

     22  H    Isotropic =    31.2892   Anisotropy =     6.8587

     23  H    Isotropic =    30.4747   Anisotropy =     6.5354

     24  H    Isotropic =    30.9045   Anisotropy =     8.4121

     25  H    Isotropic =    30.9095   Anisotropy =     7.1695

     26  H    Isotropic =    28.5968   Anisotropy =     8.7155

     27  H    Isotropic =    27.8330   Anisotropy =     5.3826

     28  H    Isotropic =    27.7274   Anisotropy =    24.6979

     29  H    Isotropic =    28.2044   Anisotropy =     7.7486

     30  H    Isotropic =    28.0179   Anisotropy =     5.1028

     31  H    Isotropic =    29.6845   Anisotropy =     3.7593

     32  C    Isotropic =   169.4597   Anisotropy =    25.8822

     33  H    Isotropic =    29.9795   Anisotropy =     3.9783

     34  H    Isotropic =    30.9798   Anisotropy =    11.5550

     35  H    Isotropic =    30.8819   Anisotropy =     7.7514

     36  H    Isotropic =    30.7292   Anisotropy =    10.1490

 The electronic state is 1-A.
 Alpha  occ. eigenvalues --  -24.80593 -24.80202 -19.18117 -14.39720 -10.34118
 Alpha  occ. eigenvalues --  -10.34081 -10.27681 -10.26826 -10.26824 -10.26475
 Alpha  occ. eigenvalues --  -10.26318 -10.25700 -10.25652 -10.23498 -10.23442
 Alpha  occ. eigenvalues --  -10.22327 -10.21392  -1.27303  -1.27063  -1.02709
 Alpha  occ. eigenvalues --   -0.94871  -0.90948  -0.83151  -0.80378  -0.79116
 Alpha  occ. eigenvalues --   -0.78585  -0.72218  -0.69204  -0.68035  -0.66143
 Alpha  occ. eigenvalues --   -0.64327  -0.62056  -0.59046  -0.58207  -0.55624
 Alpha  occ. eigenvalues --   -0.52736  -0.52012  -0.51772  -0.50916  -0.49832
 Alpha  occ. eigenvalues --   -0.49208  -0.48004  -0.47045  -0.46825  -0.46164
 Alpha  occ. eigenvalues --   -0.45153  -0.43322  -0.42464  -0.42006  -0.41567
 Alpha  occ. eigenvalues --   -0.40918  -0.40414  -0.39538  -0.38504  -0.38382
 Alpha  occ. eigenvalues --   -0.37626  -0.36640  -0.35726  -0.34034  -0.33284
 Alpha  occ. eigenvalues --   -0.32776  -0.28111  -0.27354  -0.26674  -0.25301
 Alpha virt. eigenvalues --   -0.02700  -0.01298   0.04883   0.05569   0.07058
 Alpha virt. eigenvalues --    0.07464   0.08195   0.09958   0.10270   0.10409
 Alpha virt. eigenvalues --    0.10957   0.11579   0.12095   0.12975   0.13126

 Mulliken charges:
               1
     1  C   -0.667060
     2  C   -0.492021
     3  C   -0.099165
     4  C   -0.282262
     5  C   -0.194174
     6  O   -0.612353
     7  N   -0.616704
     8  C   -0.373165
     9  C   -0.207938
    10  C   -0.264042
    11  C    0.319014
    12  C   -0.154882
    13  C    0.332225
    14  C   -0.261292
    15  H    0.236597
    16  H    0.240258
    17  H    0.239889
    18  F   -0.247485
    19  F   -0.254613
    20  H    0.228505
    21  H    0.233158
    22  H    0.227405
    23  H    0.237281
    24  H    0.236045
    25  H    0.223660
    26  H    0.215034
    27  H    0.207178
    28  H    0.412027
    29  H    0.264188
    30  H    0.276770
    31  H    0.239531
    32  C   -0.681568
    33  H    0.230105
    34  H    0.229064
    35  H    0.231068
    36  H    0.349726
 Sum of Mulliken charges =   0.00000

 Dipole moment (field-independent basis, Debye):
    X=              4.9164    Y=             -1.1627    Z=              3.0041  Tot=              5.8777
 Quadrupole moment (field-independent basis, Debye-Ang):
   XX=           -104.0118   YY=           -102.1010   ZZ=           -103.6740
   XY=              1.3813   XZ=             -6.7281   YZ=              0.3912

 Normal termination of Gaussian 09 at Wed Mar  6 11:53:20 2019.
