 Gaussian 09, Revision D.01,
 Gaussian 09:  EM64L-G09RevD.01 24-Apr-2013

 ----------------------------------------------------------------------
 # mPW1PW91/6-311g(d) geom=checkpoint nmr=giao scrf=(solvent=chloroform
 )
 ----------------------------------------------------------------------

 ------------
 AT3_2ginp007
 ------------
 Structure from the checkpoint file:  "AT3_2ginp007.chk"
 Charge =  0 Multiplicity = 1

                         Standard orientation:
 ---------------------------------------------------------------------
 Center     Atomic      Atomic             Coordinates (Angstroms)
 Number     Number       Type             X           Y           Z
 ---------------------------------------------------------------------
      1          6           0       -2.050665    3.193434   -0.151070
      2          6           0       -2.556276    1.784059   -0.485987
      3          6           0       -1.894110    0.672561    0.350437
      4          6           0       -2.670064   -0.672792    0.329983
      5          6           0       -2.948315   -1.166889   -1.097524
      6          8           0       -3.465883   -2.499622   -1.128552
      7          7           0       -0.512170    0.461156   -0.123890
      8          6           0        0.420195    0.052369    0.934666
      9          6           0        4.461299   -0.332367   -0.599790
     10          6           0        3.765685   -1.475012   -0.204996
     11          6           0        2.470510   -1.330487    0.280562
     12          6           0        1.826081   -0.098521    0.402201
     13          6           0        2.573064    1.006067   -0.011936
     14          6           0        3.866759    0.927843   -0.507615
     15          1           0        5.472047   -0.423322   -0.983232
     16          1           0        4.204910   -2.463875   -0.267620
     17          1           0        4.382792    1.831626   -0.809976
     18          9           0        1.802630   -2.443248    0.665099
     19          9           0        1.980969    2.226471    0.073511
     20          1           0       -2.530447    3.942283   -0.788866
     21          1           0       -2.270744    3.450392    0.890918
     22          1           0       -0.968377    3.294439   -0.290897
     23          1           0       -3.640049    1.754808   -0.331758
     24          1           0       -2.389338    1.573152   -1.550072
     25          1           0       -2.000694   -1.417673    0.787804
     26          1           0       -2.031262   -1.085296   -1.695594
     27          1           0       -3.717186   -0.549732   -1.574820
     28          1           0       -2.776918   -3.080642   -0.777804
     29          1           0        0.434196    0.767113    1.776810
     30          1           0        0.097726   -0.908062    1.342284
     31          1           0       -1.887052    1.017381    1.402461
     32          6           0       -3.950309   -0.632268    1.173558
     33          1           0       -4.656965    0.119251    0.803795
     34          1           0       -4.453283   -1.601926    1.135664
     35          1           0       -3.730743   -0.398228    2.220786
     36          1           0       -0.161864    1.330204   -0.516657
 ---------------------------------------------------------------------

 SCF Done:  E(RmPW1PW91) =  -836.461357997     A.U. after   12 cycles

      1  C    Isotropic =   174.6074   Anisotropy =    24.2628

      2  C    Isotropic =   163.6189   Anisotropy =    15.5289

      3  C    Isotropic =   120.5433   Anisotropy =    22.8180

      4  C    Isotropic =   144.7812   Anisotropy =    24.0887

      5  C    Isotropic =   120.9021   Anisotropy =    56.9578

      6  O    Isotropic =   305.9844   Anisotropy =   104.4639

      7  N    Isotropic =   205.9657   Anisotropy =    58.5610

      8  C    Isotropic =   144.9697   Anisotropy =    50.5228

      9  C    Isotropic =    54.1097   Anisotropy =   188.0856

     10  C    Isotropic =    72.0123   Anisotropy =   146.8594

     11  C    Isotropic =    19.6683   Anisotropy =    96.2200

     12  C    Isotropic =    66.0932   Anisotropy =   137.4252

     13  C    Isotropic =    16.8474   Anisotropy =    95.0538

     14  C    Isotropic =    72.5151   Anisotropy =   146.0701

     15  H    Isotropic =    24.6296   Anisotropy =     3.1331

     16  H    Isotropic =    25.1150   Anisotropy =     4.8977

     17  H    Isotropic =    25.1176   Anisotropy =     5.1746

     18  F    Isotropic =   295.3990   Anisotropy =   116.7004

     19  F    Isotropic =   299.1620   Anisotropy =   116.6924

     20  H    Isotropic =    30.9848   Anisotropy =    11.4291

     21  H    Isotropic =    31.2923   Anisotropy =     8.9641

     22  H    Isotropic =    31.0484   Anisotropy =     7.6321

     23  H    Isotropic =    30.6078   Anisotropy =     7.0330

     24  H    Isotropic =    31.1710   Anisotropy =     5.7610

     25  H    Isotropic =    30.3358   Anisotropy =     5.8212

     26  H    Isotropic =    27.9401   Anisotropy =     6.1089

     27  H    Isotropic =    28.9466   Anisotropy =     5.0122

     28  H    Isotropic =    32.5309   Anisotropy =    16.2256

     29  H    Isotropic =    28.4457   Anisotropy =     5.8512

     30  H    Isotropic =    28.2604   Anisotropy =     7.4081

     31  H    Isotropic =    29.5290   Anisotropy =     2.6483

     32  C    Isotropic =   173.1327   Anisotropy =    25.4190

     33  H    Isotropic =    31.3663   Anisotropy =     8.0820

     34  H    Isotropic =    30.4579   Anisotropy =     9.1570

     35  H    Isotropic =    31.3831   Anisotropy =     9.2437

     36  H    Isotropic =    31.1515   Anisotropy =    11.3636

 The electronic state is 1-A.
 Alpha  occ. eigenvalues --  -24.80321 -24.79942 -19.20399 -14.38017 -10.33900
 Alpha  occ. eigenvalues --  -10.33880 -10.27123 -10.26746 -10.26581 -10.26353
 Alpha  occ. eigenvalues --  -10.26266 -10.25503 -10.25442 -10.23371 -10.23148
 Alpha  occ. eigenvalues --  -10.22244 -10.21504  -1.27095  -1.26904  -1.04342
 Alpha  occ. eigenvalues --   -0.94361  -0.90773  -0.83233  -0.80148  -0.78919
 Alpha  occ. eigenvalues --   -0.78309  -0.71664  -0.69466  -0.67565  -0.65974
 Alpha  occ. eigenvalues --   -0.64094  -0.62936  -0.58786  -0.57470  -0.55624
 Alpha  occ. eigenvalues --   -0.52406  -0.51635  -0.51278  -0.50617  -0.49651
 Alpha  occ. eigenvalues --   -0.49033  -0.48879  -0.47478  -0.46821  -0.46011
 Alpha  occ. eigenvalues --   -0.44991  -0.43384  -0.42667  -0.41846  -0.41675
 Alpha  occ. eigenvalues --   -0.40752  -0.39250  -0.39030  -0.38132  -0.37983
 Alpha  occ. eigenvalues --   -0.37677  -0.36661  -0.35774  -0.34992  -0.32849
 Alpha  occ. eigenvalues --   -0.32225  -0.28273  -0.27718  -0.27126  -0.24292
 Alpha virt. eigenvalues --   -0.02344  -0.01031   0.04832   0.05754   0.06070
 Alpha virt. eigenvalues --    0.07386   0.07599   0.09283   0.10153   0.10746
 Alpha virt. eigenvalues --    0.10884   0.11597   0.12671   0.12883   0.13287

 Mulliken charges:
               1
     1  C   -0.657768
     2  C   -0.500144
     3  C   -0.096439
     4  C   -0.282187
     5  C   -0.193125
     6  O   -0.597227
     7  N   -0.548817
     8  C   -0.359603
     9  C   -0.209926
    10  C   -0.268230
    11  C    0.308753
    12  C   -0.130563
    13  C    0.323647
    14  C   -0.262390
    15  H    0.235231
    16  H    0.238593
    17  H    0.239410
    18  F   -0.247766
    19  F   -0.252555
    20  H    0.231625
    21  H    0.226801
    22  H    0.219619
    23  H    0.240881
    24  H    0.235832
    25  H    0.213155
    26  H    0.220668
    27  H    0.217780
    28  H    0.400498
    29  H    0.224926
    30  H    0.255887
    31  H    0.211415
    32  C   -0.651505
    33  H    0.220981
    34  H    0.233703
    35  H    0.224000
    36  H    0.334841
 Sum of Mulliken charges =   0.00000

 Dipole moment (field-independent basis, Debye):
    X=              3.3758    Y=              1.4833    Z=              0.8292  Tot=              3.7794
 Quadrupole moment (field-independent basis, Debye-Ang):
   XX=            -97.5925   YY=           -102.0181   ZZ=           -104.5752
   XY=             -9.3325   XZ=             -8.5474   YZ=             -3.6315

 Normal termination of Gaussian 09 at Wed Mar  6 12:58:38 2019.
