 Gaussian 09, Revision D.01,
 Gaussian 09:  EM64L-G09RevD.01 24-Apr-2013

 ----------------------------------------------------------------------
 # mPW1PW91/6-311g(d) geom=checkpoint nmr=giao scrf=(solvent=chloroform
 )
 ----------------------------------------------------------------------

 ------------
 AT3_1ginp020
 ------------
 Structure from the checkpoint file:  "AT3_1ginp020.chk"
 Charge =  0 Multiplicity = 1

                         Standard orientation:
 ---------------------------------------------------------------------
 Center     Atomic      Atomic             Coordinates (Angstroms)
 Number     Number       Type             X           Y           Z
 ---------------------------------------------------------------------
      1          6           0        2.084061   -2.131983    2.109801
      2          6           0        2.539365   -0.763391    1.594988
      3          6           0        1.898793   -0.380018    0.246767
      4          6           0        2.583517    0.833399   -0.455378
      5          6           0        4.015593    0.528030   -0.904113
      6          8           0        3.999547   -0.614943   -1.758336
      7          7           0        0.451026   -0.211938    0.461246
      8          6           0       -0.368858   -0.138971   -0.752038
      9          6           0       -4.564000    0.282920    0.278841
     10          6           0       -4.104012   -0.927419   -0.239913
     11          6           0       -2.755983   -1.044067   -0.562136
     12          6           0       -1.833862   -0.008982   -0.401916
     13          6           0       -2.354101    1.174740    0.124491
     14          6           0       -3.686834    1.352828    0.468398
     15          1           0       -5.611487    0.393645    0.538712
     16          1           0       -4.764777   -1.772421   -0.395248
     17          1           0       -4.016247    2.303028    0.872451
     18          9           0       -2.317737   -2.219939   -1.067982
     19          9           0       -1.489577    2.206337    0.314566
     20          1           0        2.509042   -2.346564    3.095981
     21          1           0        0.994455   -2.168674    2.185678
     22          1           0        2.399585   -2.931446    1.429452
     23          1           0        2.297258    0.006541    2.340066
     24          1           0        3.630838   -0.758561    1.496721
     25          1           0        2.020544    1.018924   -1.379979
     26          1           0        4.663988    0.358557   -0.030774
     27          1           0        4.416289    1.406132   -1.434724
     28          1           0        4.913137   -0.819321   -1.995861
     29          1           0       -0.104330    0.697176   -1.419872
     30          1           0       -0.218663   -1.059817   -1.321538
     31          1           0        2.013534   -1.233443   -0.432864
     32          6           0        2.554189    2.125264    0.375131
     33          1           0        1.531071    2.397533    0.653729
     34          1           0        3.140307    2.033913    1.295927
     35          1           0        2.965062    2.963982   -0.196706
     36          1           0        0.285439    0.622230    1.020024
 ---------------------------------------------------------------------

 SCF Done:  E(RmPW1PW91) =  -836.460911496     A.U. after   12 cycles

      1  C    Isotropic =   174.9822   Anisotropy =    23.4025

      2  C    Isotropic =   164.4245   Anisotropy =    14.1779

      3  C    Isotropic =   127.5757   Anisotropy =    29.4658

      4  C    Isotropic =   152.5153   Anisotropy =    19.7297

      5  C    Isotropic =   119.4310   Anisotropy =    63.1492

      6  O    Isotropic =   309.8194   Anisotropy =   110.7190

      7  N    Isotropic =   212.0005   Anisotropy =    47.5103

      8  C    Isotropic =   147.2566   Anisotropy =    47.3209

      9  C    Isotropic =    54.4332   Anisotropy =   187.4176

     10  C    Isotropic =    71.9575   Anisotropy =   146.8076

     11  C    Isotropic =    19.0840   Anisotropy =    97.8574

     12  C    Isotropic =    64.7560   Anisotropy =   139.1934

     13  C    Isotropic =    17.5433   Anisotropy =    94.3366

     14  C    Isotropic =    72.7991   Anisotropy =   145.5574

     15  H    Isotropic =    24.6425   Anisotropy =     3.1332

     16  H    Isotropic =    25.0882   Anisotropy =     4.8081

     17  H    Isotropic =    25.1449   Anisotropy =     5.2487

     18  F    Isotropic =   295.3631   Anisotropy =   117.6388

     19  F    Isotropic =   300.3966   Anisotropy =   114.6660

     20  H    Isotropic =    31.2000   Anisotropy =    11.2990

     21  H    Isotropic =    30.5969   Anisotropy =     6.6228

     22  H    Isotropic =    31.3363   Anisotropy =     9.2738

     23  H    Isotropic =    31.2265   Anisotropy =     5.6447

     24  H    Isotropic =    30.5530   Anisotropy =     7.4228

     25  H    Isotropic =    29.4680   Anisotropy =     4.3148

     26  H    Isotropic =    28.4169   Anisotropy =     3.7292

     27  H    Isotropic =    28.2819   Anisotropy =     6.3534

     28  H    Isotropic =    31.5593   Anisotropy =    21.1268

     29  H    Isotropic =    28.0075   Anisotropy =     4.5416

     30  H    Isotropic =    28.6127   Anisotropy =     8.6681

     31  H    Isotropic =    28.9193   Anisotropy =     4.1785

     32  C    Isotropic =   178.4411   Anisotropy =    18.7076

     33  H    Isotropic =    31.0289   Anisotropy =     8.5597

     34  H    Isotropic =    31.6707   Anisotropy =     8.2641

     35  H    Isotropic =    31.5128   Anisotropy =    10.6859

     36  H    Isotropic =    31.6116   Anisotropy =     9.6988

 The electronic state is 1-A.
 Alpha  occ. eigenvalues --  -24.80051 -24.79599 -19.20798 -14.37493 -10.33609
 Alpha  occ. eigenvalues --  -10.33607 -10.27379 -10.26704 -10.26423 -10.26034
 Alpha  occ. eigenvalues --  -10.25475 -10.25280 -10.25201 -10.23388 -10.22249
 Alpha  occ. eigenvalues --  -10.22081 -10.20958  -1.26816  -1.26577  -1.04847
 Alpha  occ. eigenvalues --   -0.93766  -0.90468  -0.82891  -0.80049  -0.78660
 Alpha  occ. eigenvalues --   -0.77870  -0.71273  -0.69786  -0.67044  -0.65693
 Alpha  occ. eigenvalues --   -0.63736  -0.62077  -0.58510  -0.57179  -0.54966
 Alpha  occ. eigenvalues --   -0.52972  -0.52051  -0.51370  -0.50822  -0.49744
 Alpha  occ. eigenvalues --   -0.48890  -0.48646  -0.46913  -0.46418  -0.45820
 Alpha  occ. eigenvalues --   -0.43864  -0.42631  -0.42460  -0.41790  -0.41237
 Alpha  occ. eigenvalues --   -0.40703  -0.39190  -0.38717  -0.37891  -0.37737
 Alpha  occ. eigenvalues --   -0.37540  -0.36360  -0.34697  -0.34096  -0.33585
 Alpha  occ. eigenvalues --   -0.32123  -0.28661  -0.27399  -0.26873  -0.23453
 Alpha virt. eigenvalues --   -0.02033  -0.00782   0.05089   0.05161   0.06223
 Alpha virt. eigenvalues --    0.07469   0.07980   0.09491   0.10220   0.10585
 Alpha virt. eigenvalues --    0.11701   0.11959   0.12182   0.13174   0.13592

 Mulliken charges:
               1
     1  C   -0.652673
     2  C   -0.445250
     3  C   -0.120614
     4  C   -0.304624
     5  C   -0.171497
     6  O   -0.609046
     7  N   -0.537890
     8  C   -0.345133
     9  C   -0.210923
    10  C   -0.270801
    11  C    0.308877
    12  C   -0.139996
    13  C    0.331046
    14  C   -0.264140
    15  H    0.233873
    16  H    0.237600
    17  H    0.237773
    18  F   -0.246356
    19  F   -0.252639
    20  H    0.217201
    21  H    0.228958
    22  H    0.216939
    23  H    0.217185
    24  H    0.228538
    25  H    0.231578
    26  H    0.205690
    27  H    0.209101
    28  H    0.413216
    29  H    0.227402
    30  H    0.250968
    31  H    0.243811
    32  C   -0.680134
    33  H    0.226954
    34  H    0.229336
    35  H    0.231248
    36  H    0.324423
 Sum of Mulliken charges =   0.00000

 Dipole moment (field-independent basis, Debye):
    X=              0.6493    Y=              1.9589    Z=              0.1495  Tot=              2.0691
 Quadrupole moment (field-independent basis, Debye-Ang):
   XX=            -70.2059   YY=           -104.9092   ZZ=           -104.4328
   XY=             -0.1566   XZ=             -4.8807   YZ=              1.1118

 Normal termination of Gaussian 09 at Wed Mar  6 12:27:01 2019.
