 Gaussian 09, Revision D.01,
 Gaussian 09:  EM64L-G09RevD.01 24-Apr-2013

 ----------------------------------------------------------------------
 # mPW1PW91/6-311g(d) geom=checkpoint nmr=giao scrf=(solvent=chloroform
 )
 ----------------------------------------------------------------------

 ------------
 AT3_1ginp015
 ------------
 Structure from the checkpoint file:  "AT3_1ginp015.chk"
 Charge =  0 Multiplicity = 1

                         Standard orientation:
 ---------------------------------------------------------------------
 Center     Atomic      Atomic             Coordinates (Angstroms)
 Number     Number       Type             X           Y           Z
 ---------------------------------------------------------------------
      1          6           0       -1.926743   -1.869548    2.435345
      2          6           0       -1.491145   -1.766554    0.970607
      3          6           0       -1.307425   -0.331254    0.437351
      4          6           0       -2.580480    0.553162    0.550792
      5          6           0       -3.734249    0.050451   -0.339022
      6          8           0       -3.459582    0.177389   -1.728353
      7          7           0       -0.833590   -0.417414   -0.974975
      8          6           0        0.259287    0.495120   -1.357448
      9          6           0        3.996561   -0.083566    0.788300
     10          6           0        3.556976   -1.047345   -0.122462
     11          6           0        2.357004   -0.824566   -0.782334
     12          6           0        1.560531    0.307698   -0.595345
     13          6           0        2.048707    1.229808    0.331280
     14          6           0        3.243048    1.066014    1.024933
     15          1           0        4.931360   -0.232059    1.318403
     16          1           0        4.122632   -1.949848   -0.322690
     17          1           0        3.561344    1.825921    1.729148
     18          9           0        1.912948   -1.756573   -1.664087
     19          9           0        1.317973    2.347327    0.567220
     20          1           0       -2.946007   -1.504400    2.591877
     21          1           0       -1.898795   -2.911576    2.768621
     22          1           0       -1.261207   -1.293866    3.088443
     23          1           0       -0.527820   -2.280717    0.854589
     24          1           0       -2.202710   -2.306769    0.332746
     25          1           0       -2.921368    0.470503    1.591147
     26          1           0       -4.634539    0.642229   -0.130004
     27          1           0       -3.978286   -0.993115   -0.078267
     28          1           0       -2.519804   -0.097076   -1.810851
     29          1           0        0.449768    0.339596   -2.423752
     30          1           0       -0.075384    1.524362   -1.236105
     31          1           0       -0.529313    0.140301    1.058443
     32          6           0       -2.299528    2.040010    0.279291
     33          1           0       -2.151007    2.220490   -0.788568
     34          1           0       -3.150990    2.652591    0.594972
     35          1           0       -1.412291    2.389188    0.817062
     36          1           0       -0.517344   -1.366333   -1.159491
 ---------------------------------------------------------------------

 SCF Done:  E(RmPW1PW91) =  -836.467948701     A.U. after   12 cycles

      1  C    Isotropic =   175.6739   Anisotropy =    20.2142

      2  C    Isotropic =   157.7626   Anisotropy =    32.8039

      3  C    Isotropic =   123.6842   Anisotropy =    19.5586

      4  C    Isotropic =   151.4516   Anisotropy =     8.5028

      5  C    Isotropic =   123.1710   Anisotropy =    59.0808

      6  O    Isotropic =   312.8284   Anisotropy =    98.3575

      7  N    Isotropic =   194.5745   Anisotropy =    26.6989

      8  C    Isotropic =   144.6865   Anisotropy =    51.0111

      9  C    Isotropic =    53.4671   Anisotropy =   189.2485

     10  C    Isotropic =    72.2966   Anisotropy =   146.9926

     11  C    Isotropic =    17.2991   Anisotropy =    95.4818

     12  C    Isotropic =    66.7760   Anisotropy =   139.0735

     13  C    Isotropic =    18.2581   Anisotropy =    98.8586

     14  C    Isotropic =    72.4538   Anisotropy =   146.5435

     15  H    Isotropic =    24.6163   Anisotropy =     3.0418

     16  H    Isotropic =    25.1380   Anisotropy =     4.8159

     17  H    Isotropic =    25.0898   Anisotropy =     4.9893

     18  F    Isotropic =   297.8359   Anisotropy =   129.5170

     19  F    Isotropic =   297.9979   Anisotropy =   117.0204

     20  H    Isotropic =    31.3746   Anisotropy =     8.2522

     21  H    Isotropic =    31.2476   Anisotropy =    11.5787

     22  H    Isotropic =    31.6732   Anisotropy =     8.0462

     23  H    Isotropic =    31.0817   Anisotropy =     6.6889

     24  H    Isotropic =    30.3979   Anisotropy =     5.5730

     25  H    Isotropic =    30.6758   Anisotropy =     6.8974

     26  H    Isotropic =    28.6238   Anisotropy =     8.6430

     27  H    Isotropic =    27.8946   Anisotropy =     5.3073

     28  H    Isotropic =    27.7196   Anisotropy =    24.4890

     29  H    Isotropic =    28.2665   Anisotropy =     7.8565

     30  H    Isotropic =    28.1255   Anisotropy =     4.5984

     31  H    Isotropic =    29.6362   Anisotropy =     6.3604

     32  C    Isotropic =   170.0384   Anisotropy =    25.3333

     33  H    Isotropic =    30.0097   Anisotropy =     4.1939

     34  H    Isotropic =    30.9364   Anisotropy =    11.5159

     35  H    Isotropic =    30.9625   Anisotropy =     8.0312

     36  H    Isotropic =    31.0271   Anisotropy =    10.2482

 The electronic state is 1-A.
 Alpha  occ. eigenvalues --  -24.80443 -24.80197 -19.18072 -14.39700 -10.34106
 Alpha  occ. eigenvalues --  -10.34080 -10.27653 -10.26821 -10.26785 -10.26466
 Alpha  occ. eigenvalues --  -10.26331 -10.25682 -10.25640 -10.23533 -10.23435
 Alpha  occ. eigenvalues --  -10.22335 -10.21399  -1.27260  -1.27048  -1.02678
 Alpha  occ. eigenvalues --   -0.94872  -0.90924  -0.83210  -0.80414  -0.79102
 Alpha  occ. eigenvalues --   -0.78386  -0.72450  -0.68998  -0.67724  -0.66135
 Alpha  occ. eigenvalues --   -0.64064  -0.62976  -0.58969  -0.57949  -0.55540
 Alpha  occ. eigenvalues --   -0.52657  -0.51950  -0.51758  -0.50878  -0.49360
 Alpha  occ. eigenvalues --   -0.49265  -0.47766  -0.47211  -0.46915  -0.46349
 Alpha  occ. eigenvalues --   -0.44914  -0.44331  -0.42650  -0.41885  -0.41316
 Alpha  occ. eigenvalues --   -0.40582  -0.39920  -0.38812  -0.38518  -0.38354
 Alpha  occ. eigenvalues --   -0.38028  -0.37251  -0.36067  -0.33599  -0.33285
 Alpha  occ. eigenvalues --   -0.32669  -0.28129  -0.27335  -0.26643  -0.25331
 Alpha virt. eigenvalues --   -0.02675  -0.01247   0.04968   0.05520   0.06942
 Alpha virt. eigenvalues --    0.07386   0.08075   0.10013   0.10102   0.10543
 Alpha virt. eigenvalues --    0.11107   0.11403   0.12357   0.12818   0.13086

 Mulliken charges:
               1
     1  C   -0.670977
     2  C   -0.486663
     3  C   -0.093097
     4  C   -0.296526
     5  C   -0.191731
     6  O   -0.612810
     7  N   -0.620647
     8  C   -0.377546
     9  C   -0.207689
    10  C   -0.264101
    11  C    0.335092
    12  C   -0.162511
    13  C    0.322301
    14  C   -0.266495
    15  H    0.236441
    16  H    0.239955
    17  H    0.240122
    18  F   -0.250701
    19  F   -0.248463
    20  H    0.232595
    21  H    0.232494
    22  H    0.227638
    23  H    0.234402
    24  H    0.236796
    25  H    0.235029
    26  H    0.214836
    27  H    0.205255
    28  H    0.411561
    29  H    0.263416
    30  H    0.276682
    31  H    0.241296
    32  C   -0.676576
    33  H    0.229540
    34  H    0.228407
    35  H    0.230374
    36  H    0.352301
 Sum of Mulliken charges =   0.00000

 Dipole moment (field-independent basis, Debye):
    X=              4.6865    Y=             -1.4851    Z=              3.2967  Tot=              5.9192
 Quadrupole moment (field-independent basis, Debye-Ang):
   XX=           -101.9814   YY=           -101.9642   ZZ=           -105.5731
   XY=              0.6402   XZ=             -6.7258   YZ=              0.3036

 Normal termination of Gaussian 09 at Wed Mar  6 13:24:54 2019.
