 Gaussian 09, Revision D.01,
 Gaussian 09:  EM64L-G09RevD.01 24-Apr-2013

 ----------------------------------------------------------------------
 # mPW1PW91/6-311g(d) geom=checkpoint nmr=giao scrf=(solvent=chloroform
 )
 ----------------------------------------------------------------------

 ------------
 AT3_1ginp011
 ------------
 Structure from the checkpoint file:  "AT3_1ginp011.chk"
 Charge =  0 Multiplicity = 1

                         Standard orientation:
 ---------------------------------------------------------------------
 Center     Atomic      Atomic             Coordinates (Angstroms)
 Number     Number       Type             X           Y           Z
 ---------------------------------------------------------------------
      1          6           0       -1.871031    3.044202    0.114014
      2          6           0       -2.504329    1.733949    0.598045
      3          6           0       -2.171477    0.515942   -0.291970
      4          6           0       -2.846322   -0.805974    0.164127
      5          6           0       -2.591012   -1.945960   -0.845109
      6          8           0       -1.231173   -2.321978   -0.972385
      7          7           0       -0.710047    0.305829   -0.505093
      8          6           0        0.121961    0.232567    0.712659
      9          6           0        4.306803   -0.234269   -0.327303
     10          6           0        3.673602    0.994688   -0.524714
     11          6           0        2.333792    1.101645   -0.180600
     12          6           0        1.578284    0.056003    0.352964
     13          6           0        2.262860   -1.149234    0.521688
     14          6           0        3.604888   -1.318593    0.199037
     15          1           0        5.353966   -0.346932   -0.587411
     16          1           0        4.194640    1.851990   -0.934519
     17          1           0        4.074335   -2.282077    0.359816
     18          9           0        1.703688    2.290123   -0.379184
     19          9           0        1.586997   -2.200592    1.034845
     20          1           0       -0.777431    3.011930    0.131814
     21          1           0       -2.179217    3.272813   -0.913049
     22          1           0       -2.184063    3.881397    0.745449
     23          1           0       -2.207052    1.533730    1.635754
     24          1           0       -3.591004    1.860791    0.616193
     25          1           0       -2.408485   -1.115845    1.123543
     26          1           0       -3.019993   -1.647970   -1.820710
     27          1           0       -3.141801   -2.837144   -0.520048
     28          1           0       -0.758402   -1.463792   -1.054281
     29          1           0        0.022641    1.123067    1.348457
     30          1           0       -0.200074   -0.627672    1.300786
     31          1           0       -2.562088    0.734760   -1.297136
     32          6           0       -4.362628   -0.647060    0.362729
     33          1           0       -4.843686   -0.253715   -0.541114
     34          1           0       -4.819828   -1.617040    0.584124
     35          1           0       -4.605715    0.023391    1.190195
     36          1           0       -0.355527    1.060132   -1.087488
 ---------------------------------------------------------------------

 SCF Done:  E(RmPW1PW91) =  -836.468086522     A.U. after   12 cycles

      1  C    Isotropic =   177.0330   Anisotropy =    20.1044

      2  C    Isotropic =   162.9536   Anisotropy =    22.5787

      3  C    Isotropic =   119.1824   Anisotropy =    23.4430

      4  C    Isotropic =   149.7363   Anisotropy =    19.5177

      5  C    Isotropic =   113.6290   Anisotropy =    56.2421

      6  O    Isotropic =   296.4833   Anisotropy =    64.5201

      7  N    Isotropic =   210.3279   Anisotropy =    42.4086

      8  C    Isotropic =   154.1889   Anisotropy =    36.7512

      9  C    Isotropic =    53.4107   Anisotropy =   189.0563

     10  C    Isotropic =    72.6163   Anisotropy =   145.9464

     11  C    Isotropic =    17.3337   Anisotropy =    93.5115

     12  C    Isotropic =    67.0262   Anisotropy =   135.7785

     13  C    Isotropic =    19.0013   Anisotropy =    98.2777

     14  C    Isotropic =    71.5759   Anisotropy =   147.4877

     15  H    Isotropic =    24.6121   Anisotropy =     3.1112

     16  H    Isotropic =    25.1306   Anisotropy =     5.3025

     17  H    Isotropic =    25.1216   Anisotropy =     5.0820

     18  F    Isotropic =   300.0519   Anisotropy =   111.2028

     19  F    Isotropic =   292.8053   Anisotropy =   122.2340

     20  H    Isotropic =    30.6997   Anisotropy =     8.5817

     21  H    Isotropic =    31.3745   Anisotropy =     9.6401

     22  H    Isotropic =    30.9323   Anisotropy =    11.1921

     23  H    Isotropic =    30.3467   Anisotropy =     4.5614

     24  H    Isotropic =    30.5691   Anisotropy =     7.8530

     25  H    Isotropic =    30.0108   Anisotropy =     3.5447

     26  H    Isotropic =    28.3973   Anisotropy =     5.9459

     27  H    Isotropic =    28.4659   Anisotropy =     6.5839

     28  H    Isotropic =    26.9918   Anisotropy =    24.1130

     29  H    Isotropic =    28.4624   Anisotropy =     4.6643

     30  H    Isotropic =    28.3449   Anisotropy =     6.4100

     31  H    Isotropic =    29.4657   Anisotropy =     4.7903

     32  C    Isotropic =   172.3473   Anisotropy =    26.4118

     33  H    Isotropic =    31.7245   Anisotropy =     8.7835

     34  H    Isotropic =    31.4239   Anisotropy =    10.6038

     35  H    Isotropic =    31.0564   Anisotropy =     8.3435

     36  H    Isotropic =    30.3853   Anisotropy =    11.4341

 The electronic state is 1-A.
 Alpha  occ. eigenvalues --  -24.80511 -24.79866 -19.17916 -14.39774 -10.34030
 Alpha  occ. eigenvalues --  -10.33972 -10.27588 -10.27035 -10.26920 -10.26389
 Alpha  occ. eigenvalues --  -10.26337 -10.25575 -10.25460 -10.23794 -10.23079
 Alpha  occ. eigenvalues --  -10.22229 -10.22217  -1.27242  -1.26877  -1.02703
 Alpha  occ. eigenvalues --   -0.94900  -0.90883  -0.83402  -0.80537  -0.78989
 Alpha  occ. eigenvalues --   -0.78407  -0.72477  -0.68614  -0.68196  -0.66068
 Alpha  occ. eigenvalues --   -0.64545  -0.62137  -0.59002  -0.57684  -0.55815
 Alpha  occ. eigenvalues --   -0.53437  -0.51724  -0.51530  -0.50674  -0.50286
 Alpha  occ. eigenvalues --   -0.49128  -0.48540  -0.46842  -0.46757  -0.45956
 Alpha  occ. eigenvalues --   -0.44193  -0.43183  -0.42939  -0.42389  -0.41729
 Alpha  occ. eigenvalues --   -0.40336  -0.39927  -0.39439  -0.38719  -0.38178
 Alpha  occ. eigenvalues --   -0.37703  -0.36654  -0.35512  -0.35108  -0.33518
 Alpha  occ. eigenvalues --   -0.32934  -0.27890  -0.27171  -0.26551  -0.25250
 Alpha virt. eigenvalues --   -0.02473  -0.01089   0.04724   0.05980   0.06434
 Alpha virt. eigenvalues --    0.06884   0.08393   0.10102   0.10165   0.10766
 Alpha virt. eigenvalues --    0.11404   0.11783   0.12093   0.13119   0.13321

 Mulliken charges:
               1
     1  C   -0.682430
     2  C   -0.472941
     3  C   -0.076262
     4  C   -0.303714
     5  C   -0.167199
     6  O   -0.610563
     7  N   -0.634119
     8  C   -0.375116
     9  C   -0.209089
    10  C   -0.258919
    11  C    0.332142
    12  C   -0.133003
    13  C    0.308727
    14  C   -0.265581
    15  H    0.235936
    16  H    0.240227
    17  H    0.240327
    18  F   -0.249609
    19  F   -0.241063
    20  H    0.233630
    21  H    0.224202
    22  H    0.232350
    23  H    0.227953
    24  H    0.244700
    25  H    0.223615
    26  H    0.185341
    27  H    0.212569
    28  H    0.409629
    29  H    0.248253
    30  H    0.269316
    31  H    0.231466
    32  C   -0.677714
    33  H    0.225465
    34  H    0.233157
    35  H    0.240885
    36  H    0.357428
 Sum of Mulliken charges =   0.00000

 Dipole moment (field-independent basis, Debye):
    X=              0.9660    Y=              3.6392    Z=              0.6315  Tot=              3.8178
 Quadrupole moment (field-independent basis, Debye-Ang):
   XX=            -80.9075   YY=           -111.5382   ZZ=           -103.1678
   XY=             -4.1270   XZ=             -3.6376   YZ=             -4.1629

 Normal termination of Gaussian 09 at Wed Mar  6 13:41:28 2019.
