 Gaussian 09, Revision D.01,
 Gaussian 09:  EM64L-G09RevD.01 24-Apr-2013

 ----------------------------------------------------------------------
 # mPW1PW91/6-311g(d) geom=checkpoint nmr=giao scrf=(solvent=chloroform
 )
 ----------------------------------------------------------------------

 ------------
 AT3_2ginp005
 ------------
 Structure from the checkpoint file:  "AT3_2ginp005.chk"
 Charge =  0 Multiplicity = 1

                         Standard orientation:
 ---------------------------------------------------------------------
 Center     Atomic      Atomic             Coordinates (Angstroms)
 Number     Number       Type             X           Y           Z
 ---------------------------------------------------------------------
      1          6           0        1.633559    3.116731   -0.454897
      2          6           0        2.504403    1.995063    0.123459
      3          6           0        2.159514    0.569663   -0.352186
      4          6           0        3.220745   -0.473063    0.097718
      5          6           0        2.914887   -1.861938   -0.496100
      6          8           0        1.791298   -2.493217    0.099668
      7          7           0        0.792790    0.126847    0.044780
      8          6           0       -0.256600    0.339133   -0.973517
      9          6           0       -4.165846   -0.471080    0.712784
     10          6           0       -3.382178   -1.527761    0.245642
     11          6           0       -2.134815   -1.236748   -0.291386
     12          6           0       -1.622478    0.058435   -0.398298
     13          6           0       -2.447226    1.071646    0.094198
     14          6           0       -3.704010    0.843735    0.641249
     15          1           0       -5.143537   -0.674297    1.136825
     16          1           0       -3.718614   -2.556886    0.292277
     17          1           0       -4.292957    1.680134    0.999075
     18          9           0       -1.370040   -2.254946   -0.745426
     19          9           0       -1.993954    2.348363    0.030251
     20          1           0        1.989643    4.092829   -0.109881
     21          1           0        1.663335    3.122570   -1.550390
     22          1           0        0.587599    3.026151   -0.147066
     23          1           0        3.554803    2.189221   -0.129175
     24          1           0        2.447786    2.029294    1.219182
     25          1           0        4.174850   -0.148839   -0.343416
     26          1           0        3.776182   -2.522908   -0.337047
     27          1           0        2.785471   -1.764145   -1.589145
     28          1           0        1.123582   -1.777867    0.166031
     29          1           0       -0.251841    1.352832   -1.389763
     30          1           0       -0.065518   -0.354431   -1.798001
     31          1           0        2.173259    0.568871   -1.451115
     32          6           0        3.400199   -0.563620    1.620929
     33          1           0        2.468242   -0.860599    2.109757
     34          1           0        4.151707   -1.320870    1.868213
     35          1           0        3.732465    0.383702    2.054170
     36          1           0        0.518658    0.591109    0.907677
 ---------------------------------------------------------------------

 SCF Done:  E(RmPW1PW91) =  -836.467464503     A.U. after   12 cycles

      1  C    Isotropic =   174.4021   Anisotropy =    18.0340

      2  C    Isotropic =   154.5237   Anisotropy =    28.3559

      3  C    Isotropic =   120.0695   Anisotropy =    16.1838

      4  C    Isotropic =   145.0314   Anisotropy =     8.5367

      5  C    Isotropic =   115.3379   Anisotropy =    38.9145

      6  O    Isotropic =   315.4470   Anisotropy =    82.5809

      7  N    Isotropic =   199.9507   Anisotropy =    65.5985

      8  C    Isotropic =   144.4407   Anisotropy =    54.1680

      9  C    Isotropic =    53.0882   Anisotropy =   189.6461

     10  C    Isotropic =    71.8769   Anisotropy =   147.4320

     11  C    Isotropic =    17.4927   Anisotropy =    99.2313

     12  C    Isotropic =    67.3977   Anisotropy =   136.6786

     13  C    Isotropic =    18.4959   Anisotropy =    96.1634

     14  C    Isotropic =    72.4778   Anisotropy =   146.3295

     15  H    Isotropic =    24.6093   Anisotropy =     3.1073

     16  H    Isotropic =    25.1088   Anisotropy =     5.2115

     17  H    Isotropic =    25.1362   Anisotropy =     5.0846

     18  F    Isotropic =   294.5756   Anisotropy =   126.4039

     19  F    Isotropic =   301.1794   Anisotropy =   112.5522

     20  H    Isotropic =    30.9020   Anisotropy =    11.2055

     21  H    Isotropic =    30.9826   Anisotropy =     7.7644

     22  H    Isotropic =    30.4884   Anisotropy =     8.5162

     23  H    Isotropic =    30.5918   Anisotropy =     8.4144

     24  H    Isotropic =    30.5250   Anisotropy =     5.2330

     25  H    Isotropic =    30.7720   Anisotropy =     7.7663

     26  H    Isotropic =    28.3844   Anisotropy =     8.2769

     27  H    Isotropic =    27.8289   Anisotropy =     5.9136

     28  H    Isotropic =    27.7319   Anisotropy =    24.2068

     29  H    Isotropic =    27.9374   Anisotropy =     5.0768

     30  H    Isotropic =    28.3202   Anisotropy =     5.6053

     31  H    Isotropic =    29.1610   Anisotropy =     2.7789

     32  C    Isotropic =   177.1112   Anisotropy =    16.8505

     33  H    Isotropic =    30.9003   Anisotropy =     4.8353

     34  H    Isotropic =    31.3656   Anisotropy =    11.3505

     35  H    Isotropic =    31.2512   Anisotropy =     7.9868

     36  H    Isotropic =    31.9089   Anisotropy =     6.8817

 The electronic state is 1-A.
 Alpha  occ. eigenvalues --  -24.80338 -24.80012 -19.18001 -14.39511 -10.34130
 Alpha  occ. eigenvalues --  -10.33999 -10.27631 -10.26903 -10.26812 -10.26413
 Alpha  occ. eigenvalues --  -10.26280 -10.25582 -10.25512 -10.23480 -10.23234
 Alpha  occ. eigenvalues --  -10.22164 -10.21457  -1.27181  -1.26959  -1.02652
 Alpha  occ. eigenvalues --   -0.94719  -0.90886  -0.83329  -0.80176  -0.79024
 Alpha  occ. eigenvalues --   -0.78231  -0.72098  -0.69475  -0.67880  -0.66091
 Alpha  occ. eigenvalues --   -0.64224  -0.62150  -0.58941  -0.57910  -0.55936
 Alpha  occ. eigenvalues --   -0.52500  -0.51736  -0.51217  -0.50493  -0.49632
 Alpha  occ. eigenvalues --   -0.49127  -0.48013  -0.47379  -0.46713  -0.46360
 Alpha  occ. eigenvalues --   -0.44194  -0.43908  -0.42840  -0.41799  -0.41364
 Alpha  occ. eigenvalues --   -0.41166  -0.39723  -0.38748  -0.38301  -0.37998
 Alpha  occ. eigenvalues --   -0.37814  -0.36946  -0.36036  -0.34274  -0.33432
 Alpha  occ. eigenvalues --   -0.32476  -0.27987  -0.27215  -0.26579  -0.24864
 Alpha virt. eigenvalues --   -0.02648  -0.01116   0.04802   0.05704   0.06637
 Alpha virt. eigenvalues --    0.07366   0.07983   0.10160   0.10329   0.10705
 Alpha virt. eigenvalues --    0.11110   0.11148   0.11997   0.13061   0.13481

 Mulliken charges:
               1
     1  C   -0.680863
     2  C   -0.451477
     3  C   -0.108820
     4  C   -0.297486
     5  C   -0.191971
     6  O   -0.607865
     7  N   -0.617840
     8  C   -0.332684
     9  C   -0.208777
    10  C   -0.260234
    11  C    0.334373
    12  C   -0.186749
    13  C    0.321740
    14  C   -0.262048
    15  H    0.236253
    16  H    0.241195
    17  H    0.240194
    18  F   -0.239500
    19  F   -0.246579
    20  H    0.232208
    21  H    0.224946
    22  H    0.233558
    23  H    0.229393
    24  H    0.228370
    25  H    0.222264
    26  H    0.214749
    27  H    0.193231
    28  H    0.415498
    29  H    0.249409
    30  H    0.259296
    31  H    0.236948
    32  C   -0.657095
    33  H    0.225932
    34  H    0.228295
    35  H    0.230378
    36  H    0.351758
 Sum of Mulliken charges =   0.00000

 Dipole moment (field-independent basis, Debye):
    X=             -1.8286    Y=              3.6633    Z=              0.0891  Tot=              4.0953
 Quadrupole moment (field-independent basis, Debye-Ang):
   XX=            -84.6630   YY=           -113.5574   ZZ=           -100.9637
   XY=              8.8191   XZ=             -6.6076   YZ=              1.0009

 Normal termination of Gaussian 09 at Wed Mar  6 13:06:10 2019.
