 Gaussian 09, Revision D.01,
 Gaussian 09:  EM64L-G09RevD.01 24-Apr-2013

 ----------------------------------------------------------------------
 # mPW1PW91/6-311g(d) geom=checkpoint nmr=giao scrf=(solvent=chloroform
 )
 ----------------------------------------------------------------------

 ------------
 AT3_1ginp009
 ------------
 Structure from the checkpoint file:  "AT3_1ginp009.chk"
 Charge =  0 Multiplicity = 1

                         Standard orientation:
 ---------------------------------------------------------------------
 Center     Atomic      Atomic             Coordinates (Angstroms)
 Number     Number       Type             X           Y           Z
 ---------------------------------------------------------------------
      1          6           0        2.187260    2.964984   -0.038773
      2          6           0        2.552485    1.626662   -0.695052
      3          6           0        1.913467    0.406928   -0.007079
      4          6           0        2.580586   -0.945379   -0.379857
      5          6           0        3.939044   -1.136049    0.298039
      6          8           0        3.756315   -1.138262    1.714294
      7          7           0        0.476031    0.354546   -0.348462
      8          6           0       -0.360944   -0.208785    0.719312
      9          6           0       -4.566471   -0.063718   -0.346259
     10          6           0       -3.919979   -1.297254   -0.271096
     11          6           0       -2.571287   -1.322359    0.068093
     12          6           0       -1.825004   -0.176185    0.346176
     13          6           0       -2.527930    1.026641    0.251934
     14          6           0       -3.871005    1.118646   -0.084729
     15          1           0       -5.617693   -0.022282   -0.611255
     16          1           0       -4.437343   -2.228709   -0.469775
     17          1           0       -4.347021    2.090830   -0.138061
     18          9           0       -1.952692   -2.523518    0.142097
     19          9           0       -1.840122    2.172395    0.500895
     20          1           0        2.639916    3.802939   -0.578306
     21          1           0        1.105279    3.138670   -0.019564
     22          1           0        2.541419    3.002157    0.997228
     23          1           0        2.253193    1.636009   -1.750647
     24          1           0        3.642863    1.519141   -0.685471
     25          1           0        1.932018   -1.733868    0.025355
     26          1           0        4.635781   -0.339334   -0.006961
     27          1           0        4.375136   -2.089029   -0.039869
     28          1           0        4.629363   -1.189329    2.124304
     29          1           0       -0.067613   -1.246394    0.892177
     30          1           0       -0.228048    0.322760    1.678293
     31          1           0        2.044748    0.533814    1.080844
     32          6           0        2.693863   -1.166761   -1.894015
     33          1           0        1.730239   -0.977416   -2.373257
     34          1           0        3.437613   -0.503469   -2.349877
     35          1           0        2.990872   -2.196905   -2.117299
     36          1           0        0.147356    1.300573   -0.520064
 ---------------------------------------------------------------------

 SCF Done:  E(RmPW1PW91) =  -836.460716904     A.U. after   12 cycles

      1  C    Isotropic =   174.8431   Anisotropy =    23.6516

      2  C    Isotropic =   164.4622   Anisotropy =    15.2999

      3  C    Isotropic =   126.3013   Anisotropy =    29.9951

      4  C    Isotropic =   148.7428   Anisotropy =    15.6869

      5  C    Isotropic =   120.2254   Anisotropy =    63.5158

      6  O    Isotropic =   308.4361   Anisotropy =   109.1562

      7  N    Isotropic =   208.4787   Anisotropy =    54.9001

      8  C    Isotropic =   145.2569   Anisotropy =    50.0090

      9  C    Isotropic =    54.4306   Anisotropy =   187.5265

     10  C    Isotropic =    71.9970   Anisotropy =   146.6512

     11  C    Isotropic =    19.4281   Anisotropy =    96.7751

     12  C    Isotropic =    65.4913   Anisotropy =   138.2146

     13  C    Isotropic =    16.8178   Anisotropy =    94.9369

     14  C    Isotropic =    72.7107   Anisotropy =   145.5539

     15  H    Isotropic =    24.6342   Anisotropy =     3.1264

     16  H    Isotropic =    25.0972   Anisotropy =     4.9050

     17  H    Isotropic =    25.1308   Anisotropy =     5.1889

     18  F    Isotropic =   294.7178   Anisotropy =   118.0004

     19  F    Isotropic =   299.5207   Anisotropy =   116.7288

     20  H    Isotropic =    30.9605   Anisotropy =    11.4564

     21  H    Isotropic =    30.9897   Anisotropy =     7.7284

     22  H    Isotropic =    31.1805   Anisotropy =     8.9115

     23  H    Isotropic =    31.0356   Anisotropy =     5.5882

     24  H    Isotropic =    30.6285   Anisotropy =     7.3390

     25  H    Isotropic =    29.8943   Anisotropy =     5.1924

     26  H    Isotropic =    28.4797   Anisotropy =     3.7783

     27  H    Isotropic =    28.3485   Anisotropy =     6.4129

     28  H    Isotropic =    31.5862   Anisotropy =    20.8649

     29  H    Isotropic =    28.2049   Anisotropy =     7.5299

     30  H    Isotropic =    28.3981   Anisotropy =     5.7054

     31  H    Isotropic =    28.9129   Anisotropy =     4.3546

     32  C    Isotropic =   176.9194   Anisotropy =    20.0264

     33  H    Isotropic =    30.7241   Anisotropy =     6.8628

     34  H    Isotropic =    31.7420   Anisotropy =     8.1683

     35  H    Isotropic =    31.5964   Anisotropy =    10.9102

     36  H    Isotropic =    31.2141   Anisotropy =    11.3488

 The electronic state is 1-A.
 Alpha  occ. eigenvalues --  -24.80095 -24.79656 -19.20673 -14.37518 -10.33652
 Alpha  occ. eigenvalues --  -10.33648 -10.27221 -10.26650 -10.26473 -10.26067
 Alpha  occ. eigenvalues --  -10.25483 -10.25305 -10.25231 -10.23130 -10.22756
 Alpha  occ. eigenvalues --  -10.22001 -10.21319  -1.26865  -1.26631  -1.04704
 Alpha  occ. eigenvalues --   -0.93832  -0.90511  -0.82955  -0.80046  -0.78694
 Alpha  occ. eigenvalues --   -0.78172  -0.71308  -0.69321  -0.67373  -0.65732
 Alpha  occ. eigenvalues --   -0.63778  -0.62494  -0.58531  -0.56015  -0.55289
 Alpha  occ. eigenvalues --   -0.52814  -0.52144  -0.51404  -0.50746  -0.49546
 Alpha  occ. eigenvalues --   -0.49071  -0.48770  -0.47978  -0.46511  -0.45165
 Alpha  occ. eigenvalues --   -0.43678  -0.42830  -0.42817  -0.41951  -0.41309
 Alpha  occ. eigenvalues --   -0.40596  -0.39237  -0.38400  -0.38011  -0.37746
 Alpha  occ. eigenvalues --   -0.37614  -0.36827  -0.35287  -0.34022  -0.32733
 Alpha  occ. eigenvalues --   -0.31982  -0.28608  -0.27478  -0.26906  -0.23875
 Alpha virt. eigenvalues --   -0.02105  -0.00813   0.05108   0.05449   0.06429
 Alpha virt. eigenvalues --    0.07087   0.07609   0.09715   0.10310   0.10596
 Alpha virt. eigenvalues --    0.11617   0.11890   0.12376   0.13046   0.13529

 Mulliken charges:
               1
     1  C   -0.657606
     2  C   -0.499592
     3  C   -0.088489
     4  C   -0.275134
     5  C   -0.175575
     6  O   -0.608783
     7  N   -0.551175
     8  C   -0.357406
     9  C   -0.210693
    10  C   -0.269435
    11  C    0.308996
    12  C   -0.130578
    13  C    0.322738
    14  C   -0.263449
    15  H    0.234104
    16  H    0.237694
    17  H    0.238247
    18  F   -0.246519
    19  F   -0.253089
    20  H    0.228627
    21  H    0.218724
    22  H    0.226364
    23  H    0.233489
    24  H    0.234145
    25  H    0.229462
    26  H    0.203502
    27  H    0.208929
    28  H    0.412219
    29  H    0.257437
    30  H    0.223826
    31  H    0.225657
    32  C   -0.670849
    33  H    0.238573
    34  H    0.219805
    35  H    0.224561
    36  H    0.331273
 Sum of Mulliken charges =   0.00000

 Dipole moment (field-independent basis, Debye):
    X=              0.4672    Y=              0.7975    Z=             -0.1300  Tot=              0.9333
 Quadrupole moment (field-independent basis, Debye-Ang):
   XX=            -70.2327   YY=           -102.5124   ZZ=           -105.3109
   XY=             -1.9781   XZ=              4.6935   YZ=             -0.6391

 Normal termination of Gaussian 09 at Wed Mar  6 12:14:45 2019.
