 Gaussian 09, Revision D.01,
 Gaussian 09:  EM64L-G09RevD.01 24-Apr-2013

 ----------------------------------------------------------------------
 # mPW1PW91/6-311g(d) geom=checkpoint nmr=giao scrf=(solvent=chloroform
 )
 ----------------------------------------------------------------------

 ------------
 AT3_1ginp019
 ------------
 Structure from the checkpoint file:  "AT3_1ginp019.chk"
 Charge =  0 Multiplicity = 1

                         Standard orientation:
 ---------------------------------------------------------------------
 Center     Atomic      Atomic             Coordinates (Angstroms)
 Number     Number       Type             X           Y           Z
 ---------------------------------------------------------------------
      1          6           0       -1.964583    2.708413   -0.946085
      2          6           0       -1.416988    1.889803    0.228783
      3          6           0       -1.209926    0.389640   -0.069234
      4          6           0       -2.475306   -0.334861   -0.597095
      5          6           0       -3.603300   -0.396129    0.436960
      6          8           0       -4.778610   -0.876758   -0.221312
      7          7           0       -0.723803   -0.302068    1.140448
      8          6           0        0.604820    0.073996    1.638122
      9          6           0        3.888442   -0.411827   -1.178849
     10          6           0        3.528078    0.869365   -0.761647
     11          6           0        2.476563    1.001397    0.139063
     12          6           0        1.758162   -0.077340    0.655425
     13          6           0        2.164297   -1.331980    0.195210
     14          6           0        3.204421   -1.532264   -0.701337
     15          1           0        4.705731   -0.539386   -1.880799
     16          1           0        4.041564    1.754746   -1.118389
     17          1           0        3.463340   -2.538666   -1.009339
     18          9           0        2.132723    2.250926    0.542066
     19          9           0        1.491386   -2.414895    0.663726
     20          1           0       -1.365051    2.556217   -1.851204
     21          1           0       -3.000661    2.451706   -1.187069
     22          1           0       -1.939965    3.777347   -0.711656
     23          1           0       -0.447733    2.313943    0.511135
     24          1           0       -2.066706    2.002145    1.104829
     25          1           0       -2.852174    0.264419   -1.434507
     26          1           0       -3.782687    0.601417    0.862633
     27          1           0       -3.316452   -1.057416    1.266390
     28          1           0       -5.465346   -0.983119    0.449465
     29          1           0        0.585012    1.103909    1.996338
     30          1           0        0.806325   -0.558517    2.508845
     31          1           0       -0.467891    0.334021   -0.889024
     32          6           0       -2.162482   -1.731861   -1.159324
     33          1           0       -3.059145   -2.163730   -1.609475
     34          1           0       -1.382007   -1.681638   -1.925984
     35          1           0       -1.826925   -2.430311   -0.383150
     36          1           0       -0.703916   -1.300940    0.956231
 ---------------------------------------------------------------------

 SCF Done:  E(RmPW1PW91) =  -836.460973759     A.U. after   12 cycles

      1  C    Isotropic =   177.2409   Anisotropy =    16.8387

      2  C    Isotropic =   162.9935   Anisotropy =    19.7443

      3  C    Isotropic =   126.2879   Anisotropy =    14.1162

      4  C    Isotropic =   150.3054   Anisotropy =    24.1534

      5  C    Isotropic =   122.9162   Anisotropy =    57.7173

      6  O    Isotropic =   311.4640   Anisotropy =    95.2322

      7  N    Isotropic =   202.9746   Anisotropy =    40.1079

      8  C    Isotropic =   148.0826   Anisotropy =    46.1020

      9  C    Isotropic =    54.1865   Anisotropy =   188.1409

     10  C    Isotropic =    72.6588   Anisotropy =   145.9895

     11  C    Isotropic =    18.3136   Anisotropy =    97.6731

     12  C    Isotropic =    65.6690   Anisotropy =   138.6032

     13  C    Isotropic =    16.9168   Anisotropy =    95.4965

     14  C    Isotropic =    72.2900   Anisotropy =   146.5600

     15  H    Isotropic =    24.6486   Anisotropy =     2.9821

     16  H    Isotropic =    25.1651   Anisotropy =     4.8446

     17  H    Isotropic =    25.1390   Anisotropy =     4.9730

     18  F    Isotropic =   296.9795   Anisotropy =   118.8801

     19  F    Isotropic =   296.6167   Anisotropy =   131.3868

     20  H    Isotropic =    31.5270   Anisotropy =     8.2977

     21  H    Isotropic =    31.0814   Anisotropy =     8.0982

     22  H    Isotropic =    31.0696   Anisotropy =    11.3290

     23  H    Isotropic =    30.0963   Anisotropy =     8.4225

     24  H    Isotropic =    30.9320   Anisotropy =     6.2835

     25  H    Isotropic =    30.1341   Anisotropy =     6.0535

     26  H    Isotropic =    28.2166   Anisotropy =     6.0503

     27  H    Isotropic =    28.5907   Anisotropy =     5.8650

     28  H    Isotropic =    31.6495   Anisotropy =    20.4543

     29  H    Isotropic =    28.1331   Anisotropy =     6.0617

     30  H    Isotropic =    28.1826   Anisotropy =     8.1044

     31  H    Isotropic =    29.8148   Anisotropy =     5.1331

     32  C    Isotropic =   171.5368   Anisotropy =    28.0643

     33  H    Isotropic =    30.4532   Anisotropy =     9.6780

     34  H    Isotropic =    31.7131   Anisotropy =     8.4492

     35  H    Isotropic =    31.4046   Anisotropy =     6.4985

     36  H    Isotropic =    30.6411   Anisotropy =    10.4476

 The electronic state is 1-A.
 Alpha  occ. eigenvalues --  -24.80098 -24.79929 -19.20391 -14.37955 -10.33765
 Alpha  occ. eigenvalues --  -10.33733 -10.26982 -10.26827 -10.26372 -10.26182
 Alpha  occ. eigenvalues --  -10.26081 -10.25414 -10.25385 -10.23467 -10.22388
 Alpha  occ. eigenvalues --  -10.21778 -10.21575  -1.26903  -1.26753  -1.04394
 Alpha  occ. eigenvalues --   -0.94088  -0.90586  -0.82956  -0.79946  -0.78802
 Alpha  occ. eigenvalues --   -0.78119  -0.71658  -0.69608  -0.67640  -0.65790
 Alpha  occ. eigenvalues --   -0.64111  -0.61853  -0.58683  -0.56273  -0.55087
 Alpha  occ. eigenvalues --   -0.53345  -0.52063  -0.51490  -0.50656  -0.49726
 Alpha  occ. eigenvalues --   -0.49048  -0.48752  -0.47217  -0.46712  -0.45720
 Alpha  occ. eigenvalues --   -0.44682  -0.43584  -0.42137  -0.41725  -0.41196
 Alpha  occ. eigenvalues --   -0.40409  -0.39440  -0.38573  -0.38155  -0.37927
 Alpha  occ. eigenvalues --   -0.37506  -0.36844  -0.35620  -0.33415  -0.32808
 Alpha  occ. eigenvalues --   -0.32308  -0.28174  -0.27661  -0.27054  -0.24282
 Alpha virt. eigenvalues --   -0.02293  -0.00967   0.05279   0.05595   0.06316
 Alpha virt. eigenvalues --    0.06857   0.08015   0.09157   0.10224   0.10975
 Alpha virt. eigenvalues --    0.11516   0.11859   0.12348   0.12986   0.13299

 Mulliken charges:
               1
     1  C   -0.678179
     2  C   -0.445615
     3  C   -0.095496
     4  C   -0.337640
     5  C   -0.154579
     6  O   -0.616117
     7  N   -0.540751
     8  C   -0.401724
     9  C   -0.212024
    10  C   -0.262545
    11  C    0.321661
    12  C   -0.161595
    13  C    0.328105
    14  C   -0.263238
    15  H    0.234844
    16  H    0.238387
    17  H    0.238421
    18  F   -0.249979
    19  F   -0.251968
    20  H    0.224531
    21  H    0.232442
    22  H    0.228610
    23  H    0.235940
    24  H    0.221150
    25  H    0.242349
    26  H    0.214868
    27  H    0.202890
    28  H    0.410924
    29  H    0.265569
    30  H    0.258792
    31  H    0.216907
    32  C   -0.661557
    33  H    0.242827
    34  H    0.227438
    35  H    0.214906
    36  H    0.331445
 Sum of Mulliken charges =   0.00000

 Dipole moment (field-independent basis, Debye):
    X=              1.8552    Y=             -0.1754    Z=             -0.0432  Tot=              1.8639
 Quadrupole moment (field-independent basis, Debye-Ang):
   XX=            -90.7971   YY=           -102.9573   ZZ=           -101.3437
   XY=             -2.2717   XZ=            -13.7033   YZ=             -1.1019

 Normal termination of Gaussian 09 at Wed Mar  6 12:18:16 2019.
