 Gaussian 09, Revision D.01,
 Gaussian 09:  EM64L-G09RevD.01 24-Apr-2013

 ----------------------------------------------------------------------
 # mPW1PW91/6-311g(d) geom=checkpoint nmr=giao scrf=(solvent=chloroform
 )
 ----------------------------------------------------------------------

 ------------
 AT3_2ginp006
 ------------
 Structure from the checkpoint file:  "AT3_2ginp006.chk"
 Charge =  0 Multiplicity = 1

                         Standard orientation:
 ---------------------------------------------------------------------
 Center     Atomic      Atomic             Coordinates (Angstroms)
 Number     Number       Type             X           Y           Z
 ---------------------------------------------------------------------
      1          6           0       -3.633157   -2.166349   -1.301056
      2          6           0       -2.290581   -1.899508   -0.610000
      3          6           0       -1.893842   -0.408983   -0.504976
      4          6           0       -2.886763    0.442394    0.325910
      5          6           0       -2.560443    1.931926    0.185666
      6          8           0       -3.639054    2.685174    0.746055
      7          7           0       -0.521557   -0.205859    0.001855
      8          6           0        0.543131   -0.536762   -0.953453
      9          6           0        4.444303    0.380494    0.713421
     10          6           0        3.729101   -0.724268    1.180029
     11          6           0        2.485796   -0.983461    0.619958
     12          6           0        1.904606   -0.207463   -0.384310
     13          6           0        2.662717    0.886287   -0.804705
     14          6           0        3.915237    1.196981   -0.286308
     15          1           0        5.419058    0.606357    1.132769
     16          1           0        4.114648   -1.373124    1.957820
     17          1           0        4.450543    2.060081   -0.664810
     18          9           0        1.776749   -2.049304    1.072536
     19          9           0        2.156608    1.680124   -1.777128
     20          1           0       -3.797291   -3.241226   -1.428665
     21          1           0       -4.477995   -1.772360   -0.727923
     22          1           0       -3.663881   -1.706955   -2.295835
     23          1           0       -2.295921   -2.344618    0.393513
     24          1           0       -1.503050   -2.421861   -1.166383
     25          1           0       -3.881688    0.306508   -0.118327
     26          1           0       -2.427996    2.180658   -0.879766
     27          1           0       -1.612826    2.151877    0.693816
     28          1           0       -3.355451    3.606817    0.797542
     29          1           0        0.546650   -1.594135   -1.264885
     30          1           0        0.387239    0.060547   -1.855241
     31          1           0       -1.901868    0.004110   -1.524656
     32          6           0       -2.967070    0.037873    1.805483
     33          1           0       -3.321914   -0.989340    1.933250
     34          1           0       -1.989254    0.123916    2.293467
     35          1           0       -3.657526    0.700811    2.332438
     36          1           0       -0.386565   -0.770796    0.837832
 ---------------------------------------------------------------------

 SCF Done:  E(RmPW1PW91) =  -836.460883931     A.U. after   12 cycles

      1  C    Isotropic =   175.7334   Anisotropy =    21.0832

      2  C    Isotropic =   163.0865   Anisotropy =    22.1720

      3  C    Isotropic =   122.2482   Anisotropy =    28.6386

      4  C    Isotropic =   149.0827   Anisotropy =    18.6494

      5  C    Isotropic =   115.9140   Anisotropy =    52.8592

      6  O    Isotropic =   309.7889   Anisotropy =    98.7953

      7  N    Isotropic =   204.5852   Anisotropy =    53.3601

      8  C    Isotropic =   145.6204   Anisotropy =    50.5114

      9  C    Isotropic =    54.2896   Anisotropy =   188.0787

     10  C    Isotropic =    72.7509   Anisotropy =   145.9202

     11  C    Isotropic =    17.4740   Anisotropy =    95.4064

     12  C    Isotropic =    65.0781   Anisotropy =   138.6979

     13  C    Isotropic =    19.1398   Anisotropy =    97.6078

     14  C    Isotropic =    72.1137   Anisotropy =   146.7731

     15  H    Isotropic =    24.6433   Anisotropy =     3.1480

     16  H    Isotropic =    25.1752   Anisotropy =     5.0712

     17  H    Isotropic =    25.1378   Anisotropy =     4.7997

     18  F    Isotropic =   299.5050   Anisotropy =   114.7670

     19  F    Isotropic =   296.1565   Anisotropy =   117.1947

     20  H    Isotropic =    30.9514   Anisotropy =    11.2992

     21  H    Isotropic =    31.0027   Anisotropy =     7.5487

     22  H    Isotropic =    31.3513   Anisotropy =     9.2989

     23  H    Isotropic =    30.7684   Anisotropy =     5.0681

     24  H    Isotropic =    30.0120   Anisotropy =     6.3109

     25  H    Isotropic =    30.1387   Anisotropy =     5.8346

     26  H    Isotropic =    28.3601   Anisotropy =     4.4040

     27  H    Isotropic =    28.3239   Anisotropy =     7.3181

     28  H    Isotropic =    31.5760   Anisotropy =    20.0695

     29  H    Isotropic =    28.0417   Anisotropy =     5.3584

     30  H    Isotropic =    28.7671   Anisotropy =     8.1263

     31  H    Isotropic =    29.6180   Anisotropy =     2.3120

     32  C    Isotropic =   178.8115   Anisotropy =    18.4131

     33  H    Isotropic =    31.3237   Anisotropy =     8.5922

     34  H    Isotropic =    31.7657   Anisotropy =     7.1521

     35  H    Isotropic =    30.7231   Anisotropy =     9.5715

     36  H    Isotropic =    31.8625   Anisotropy =    10.0239

 The electronic state is 1-A.
 Alpha  occ. eigenvalues --  -24.80081 -24.79779 -19.20227 -14.37795 -10.33744
 Alpha  occ. eigenvalues --  -10.33708 -10.26992 -10.26541 -10.26507 -10.26146
 Alpha  occ. eigenvalues --  -10.26123 -10.25370 -10.25319 -10.23131 -10.22640
 Alpha  occ. eigenvalues --  -10.21898 -10.21219  -1.26906  -1.26743  -1.04216
 Alpha  occ. eigenvalues --   -0.94036  -0.90605  -0.83063  -0.79889  -0.78770
 Alpha  occ. eigenvalues --   -0.77967  -0.71562  -0.69522  -0.67214  -0.65816
 Alpha  occ. eigenvalues --   -0.63860  -0.62000  -0.58682  -0.57360  -0.55161
 Alpha  occ. eigenvalues --   -0.53144  -0.51560  -0.51474  -0.50893  -0.49051
 Alpha  occ. eigenvalues --   -0.48737  -0.48628  -0.46882  -0.46557  -0.46087
 Alpha  occ. eigenvalues --   -0.45039  -0.42604  -0.42196  -0.41821  -0.41149
 Alpha  occ. eigenvalues --   -0.40321  -0.39502  -0.38522  -0.38275  -0.37799
 Alpha  occ. eigenvalues --   -0.37330  -0.36572  -0.35739  -0.33722  -0.33101
 Alpha  occ. eigenvalues --   -0.32378  -0.28083  -0.27549  -0.26981  -0.23827
 Alpha virt. eigenvalues --   -0.02179  -0.00890   0.05131   0.05693   0.06433
 Alpha virt. eigenvalues --    0.07086   0.07519   0.08615   0.10369   0.11233
 Alpha virt. eigenvalues --    0.11604   0.11826   0.12384   0.13177   0.13646

 Mulliken charges:
               1
     1  C   -0.668233
     2  C   -0.446267
     3  C   -0.145124
     4  C   -0.273721
     5  C   -0.161452
     6  O   -0.615541
     7  N   -0.543342
     8  C   -0.352233
     9  C   -0.210382
    10  C   -0.263636
    11  C    0.331612
    12  C   -0.136768
    13  C    0.309496
    14  C   -0.270503
    15  H    0.234379
    16  H    0.238354
    17  H    0.237819
    18  F   -0.252532
    19  F   -0.247710
    20  H    0.227902
    21  H    0.232245
    22  H    0.223337
    23  H    0.220763
    24  H    0.231474
    25  H    0.232640
    26  H    0.198557
    27  H    0.210525
    28  H    0.410519
    29  H    0.226309
    30  H    0.250747
    31  H    0.228710
    32  C   -0.678522
    33  H    0.229438
    34  H    0.221554
    35  H    0.240262
    36  H    0.329323
 Sum of Mulliken charges =   0.00000

 Dipole moment (field-independent basis, Debye):
    X=              2.8178    Y=             -0.0936    Z=             -0.1080  Tot=              2.8215
 Quadrupole moment (field-independent basis, Debye-Ang):
   XX=            -98.4497   YY=            -96.4085   ZZ=           -102.0952
   XY=              4.5037   XZ=              7.5546   YZ=              0.4595

 Normal termination of Gaussian 09 at Wed Mar  6 12:27:38 2019.
