 Gaussian 09, Revision D.01,
 Gaussian 09:  EM64L-G09RevD.01 24-Apr-2013

 ----------------------------------------------------------------------
 # mPW1PW91/6-311g(d) geom=checkpoint nmr=giao scrf=(solvent=chloroform
 )
 ----------------------------------------------------------------------

 ------------
 AT3_1ginp002
 ------------
 Structure from the checkpoint file:  "AT3_1ginp002.chk"
 Charge =  0 Multiplicity = 1

                         Standard orientation:
 ---------------------------------------------------------------------
 Center     Atomic      Atomic             Coordinates (Angstroms)
 Number     Number       Type             X           Y           Z
 ---------------------------------------------------------------------
      1          6           0       -3.887070    1.867474   -1.078286
      2          6           0       -2.459313    1.594041   -0.591664
      3          6           0       -2.031796    0.115103   -0.664590
      4          6           0       -2.972596   -0.847184    0.112450
      5          6           0       -3.052201   -0.520497    1.617087
      6          8           0       -1.817648   -0.696726    2.301017
      7          7           0       -0.649429   -0.050817   -0.146182
      8          6           0        0.390071    0.694236   -0.881001
      9          6           0        4.351908   -0.439561    0.474102
     10          6           0        3.852261    0.823790    0.789958
     11          6           0        2.578707    1.164649    0.347983
     12          6           0        1.770546    0.309860   -0.404062
     13          6           0        2.325476   -0.940171   -0.685239
     14          6           0        3.587662   -1.340298   -0.270569
     15          1           0        5.342243   -0.725833    0.811960
     16          1           0        4.425833    1.539460    1.367357
     17          1           0        3.950082   -2.328941   -0.526806
     18          9           0        2.100504    2.392448    0.653657
     19          9           0        1.566434   -1.810291   -1.400079
     20          1           0       -4.643295    1.446062   -0.409624
     21          1           0       -4.069306    2.944752   -1.139195
     22          1           0       -4.053529    1.447050   -2.076849
     23          1           0       -1.774936    2.183296   -1.211230
     24          1           0       -2.331111    1.960784    0.434011
     25          1           0       -3.978072   -0.693142   -0.298489
     26          1           0       -3.777747   -1.193352    2.090512
     27          1           0       -3.436236    0.503149    1.754230
     28          1           0       -1.147301   -0.274287    1.724401
     29          1           0        0.321393    0.518923   -1.967678
     30          1           0        0.254368    1.762509   -0.714390
     31          1           0       -2.073757   -0.179040   -1.731308
     32          6           0       -2.609372   -2.324899   -0.109645
     33          1           0       -1.705448   -2.603178    0.440308
     34          1           0       -3.413251   -2.972386    0.255341
     35          1           0       -2.456457   -2.547870   -1.171258
     36          1           0       -0.414437   -1.037109   -0.237516
 ---------------------------------------------------------------------

 SCF Done:  E(RmPW1PW91) =  -836.467248251     A.U. after   12 cycles

      1  C    Isotropic =   176.8441   Anisotropy =    18.0632

      2  C    Isotropic =   162.4049   Anisotropy =    18.3347

      3  C    Isotropic =   119.6639   Anisotropy =    22.1802

      4  C    Isotropic =   150.3972   Anisotropy =     9.8030

      5  C    Isotropic =   123.4478   Anisotropy =    58.2828

      6  O    Isotropic =   304.9419   Anisotropy =   112.6795

      7  N    Isotropic =   196.3592   Anisotropy =    44.7767

      8  C    Isotropic =   146.5920   Anisotropy =    48.2055

      9  C    Isotropic =    53.4019   Anisotropy =   189.5116

     10  C    Isotropic =    71.7993   Anisotropy =   147.1148

     11  C    Isotropic =    19.3204   Anisotropy =    97.4327

     12  C    Isotropic =    66.7067   Anisotropy =   136.6378

     13  C    Isotropic =    17.0684   Anisotropy =    96.0031

     14  C    Isotropic =    72.4456   Anisotropy =   146.4720

     15  H    Isotropic =    24.5832   Anisotropy =     3.1670

     16  H    Isotropic =    25.1172   Anisotropy =     4.8640

     17  H    Isotropic =    25.0994   Anisotropy =     5.1784

     18  F    Isotropic =   296.5499   Anisotropy =   120.6393

     19  F    Isotropic =   300.5953   Anisotropy =   118.1008

     20  H    Isotropic =    31.2133   Anisotropy =     7.7092

     21  H    Isotropic =    30.9758   Anisotropy =    11.3892

     22  H    Isotropic =    31.4298   Anisotropy =     9.4343

     23  H    Isotropic =    30.1258   Anisotropy =     6.5772

     24  H    Isotropic =    30.5497   Anisotropy =     5.6061

     25  H    Isotropic =    30.4886   Anisotropy =     7.0431

     26  H    Isotropic =    28.8254   Anisotropy =     8.5510

     27  H    Isotropic =    28.0037   Anisotropy =     5.3603

     28  H    Isotropic =    29.1601   Anisotropy =    23.7359

     29  H    Isotropic =    28.7920   Anisotropy =     6.1770

     30  H    Isotropic =    28.1321   Anisotropy =     7.5071

     31  H    Isotropic =    29.0598   Anisotropy =     4.0190

     32  C    Isotropic =   172.1640   Anisotropy =    27.8597

     33  H    Isotropic =    30.4668   Anisotropy =     5.4306

     34  H    Isotropic =    30.9951   Anisotropy =    11.3757

     35  H    Isotropic =    31.3873   Anisotropy =     8.6443

     36  H    Isotropic =    30.5257   Anisotropy =    10.0469

 The electronic state is 1-A.
 Alpha  occ. eigenvalues --  -24.80445 -24.80051 -19.18519 -14.39566 -10.34046
 Alpha  occ. eigenvalues --  -10.34032 -10.27608 -10.26953 -10.26920 -10.26591
 Alpha  occ. eigenvalues --  -10.26371 -10.25589 -10.25519 -10.23896 -10.23140
 Alpha  occ. eigenvalues --  -10.22247 -10.21972  -1.27254  -1.27030  -1.03049
 Alpha  occ. eigenvalues --   -0.95017  -0.90929  -0.83482  -0.80338  -0.79027
 Alpha  occ. eigenvalues --   -0.78509  -0.72190  -0.69620  -0.67793  -0.66089
 Alpha  occ. eigenvalues --   -0.64664  -0.62254  -0.58909  -0.57287  -0.55907
 Alpha  occ. eigenvalues --   -0.52693  -0.51797  -0.51681  -0.50586  -0.49658
 Alpha  occ. eigenvalues --   -0.49188  -0.49058  -0.47322  -0.46861  -0.46169
 Alpha  occ. eigenvalues --   -0.44961  -0.43910  -0.42871  -0.42070  -0.41799
 Alpha  occ. eigenvalues --   -0.40522  -0.39502  -0.39010  -0.38511  -0.38263
 Alpha  occ. eigenvalues --   -0.37971  -0.37496  -0.35814  -0.34187  -0.33357
 Alpha  occ. eigenvalues --   -0.32349  -0.27972  -0.27214  -0.27177  -0.25424
 Alpha virt. eigenvalues --   -0.02532  -0.01120   0.04812   0.05594   0.06544
 Alpha virt. eigenvalues --    0.07327   0.08336   0.10086   0.10217   0.10731
 Alpha virt. eigenvalues --    0.11330   0.12189   0.12371   0.12898   0.13179

 Mulliken charges:
               1
     1  C   -0.670712
     2  C   -0.458787
     3  C   -0.098614
     4  C   -0.321942
     5  C   -0.191859
     6  O   -0.611944
     7  N   -0.613216
     8  C   -0.353934
     9  C   -0.207599
    10  C   -0.266339
    11  C    0.317914
    12  C   -0.141944
    13  C    0.325720
    14  C   -0.259936
    15  H    0.236151
    16  H    0.239875
    17  H    0.240470
    18  F   -0.245163
    19  F   -0.251750
    20  H    0.231156
    21  H    0.232493
    22  H    0.226077
    23  H    0.239204
    24  H    0.236349
    25  H    0.242890
    26  H    0.217405
    27  H    0.211300
    28  H    0.401643
    29  H    0.231368
    30  H    0.265865
    31  H    0.216281
    32  C   -0.675732
    33  H    0.232919
    34  H    0.235093
    35  H    0.230455
    36  H    0.358844
 Sum of Mulliken charges =   0.00000

 Dipole moment (field-independent basis, Debye):
    X=              1.5595    Y=              0.2831    Z=             -3.0977  Tot=              3.4797
 Quadrupole moment (field-independent basis, Debye-Ang):
   XX=            -82.6295   YY=           -102.2391   ZZ=           -111.6881
   XY=             -4.3103   XZ=              8.4069   YZ=              1.4836

 Normal termination of Gaussian 09 at Wed Mar  6 13:30:40 2019.
