 Gaussian 09, Revision D.01,
 Gaussian 09:  EM64L-G09RevD.01 24-Apr-2013

 ----------------------------------------------------------------------
 # mPW1PW91/6-311g(d) geom=checkpoint nmr=giao scrf=(solvent=chloroform
 )
 ----------------------------------------------------------------------

 ------------
 AT3_1ginp016
 ------------
 Structure from the checkpoint file:  "AT3_1ginp016.chk"
 Charge =  0 Multiplicity = 1

                         Standard orientation:
 ---------------------------------------------------------------------
 Center     Atomic      Atomic             Coordinates (Angstroms)
 Number     Number       Type             X           Y           Z
 ---------------------------------------------------------------------
      1          6           0       -2.185501    2.958215    0.005769
      2          6           0       -2.554659    1.627862    0.675738
      3          6           0       -1.914369    0.400350    0.003331
      4          6           0       -2.584324   -0.945687    0.388585
      5          6           0       -3.949397   -1.139275   -0.288632
      6          8           0       -3.902720   -1.068420   -1.713731
      7          7           0       -0.476836    0.351433    0.345019
      8          6           0        0.363560   -0.203568   -0.723785
      9          6           0        4.565026   -0.064637    0.356644
     10          6           0        3.919937   -1.298103    0.268579
     11          6           0        2.572624   -1.321176   -0.075683
     12          6           0        1.826580   -0.173214   -0.346585
     13          6           0        2.527946    1.029445   -0.239722
     14          6           0        3.869695    1.119435    0.102585
     15          1           0        5.615192   -0.024645    0.625938
     16          1           0        4.437364   -2.230748    0.461344
     17          1           0        4.344810    2.091432    0.166058
     18          9           0        1.954707   -2.522210   -0.162633
     19          9           0        1.839818    2.176360   -0.481506
     20          1           0       -2.539216    2.985090   -1.030578
     21          1           0       -2.636916    3.802502    0.536249
     22          1           0       -1.103069    3.129063   -0.014086
     23          1           0       -2.258870    1.647874    1.732213
     24          1           0       -3.644924    1.521661    0.663218
     25          1           0       -1.929588   -1.739997   -0.002401
     26          1           0       -4.649292   -0.355057    0.020630
     27          1           0       -4.380266   -2.097574    0.040180
     28          1           0       -3.331826   -1.786891   -2.018933
     29          1           0        0.072459   -1.240968   -0.903341
     30          1           0        0.232953    0.333911   -1.679936
     31          1           0       -2.046252    0.514276   -1.086451
     32          6           0       -2.698286   -1.157299    1.904260
     33          1           0       -3.433783   -0.481808    2.355185
     34          1           0       -3.009209   -2.181973    2.134150
     35          1           0       -1.732392   -0.977490    2.382740
     36          1           0       -0.151270    1.297228    0.523287
 ---------------------------------------------------------------------

 SCF Done:  E(RmPW1PW91) =  -836.461517370     A.U. after   12 cycles

      1  C    Isotropic =   174.9513   Anisotropy =    23.5337

      2  C    Isotropic =   164.5051   Anisotropy =    15.2352

      3  C    Isotropic =   126.3264   Anisotropy =    30.7096

      4  C    Isotropic =   145.5811   Anisotropy =    17.7561

      5  C    Isotropic =   119.4609   Anisotropy =    64.7378

      6  O    Isotropic =   299.5395   Anisotropy =    87.6770

      7  N    Isotropic =   209.0494   Anisotropy =    54.9683

      8  C    Isotropic =   145.2815   Anisotropy =    50.1463

      9  C    Isotropic =    54.2892   Anisotropy =   187.8317

     10  C    Isotropic =    72.0183   Anisotropy =   146.7327

     11  C    Isotropic =    19.5496   Anisotropy =    96.5353

     12  C    Isotropic =    65.8029   Anisotropy =   137.8548

     13  C    Isotropic =    16.8701   Anisotropy =    95.0329

     14  C    Isotropic =    72.5943   Anisotropy =   145.8426

     15  H    Isotropic =    24.6333   Anisotropy =     3.1384

     16  H    Isotropic =    25.1098   Anisotropy =     4.8899

     17  H    Isotropic =    25.1252   Anisotropy =     5.1733

     18  F    Isotropic =   295.3186   Anisotropy =   117.3819

     19  F    Isotropic =   299.2524   Anisotropy =   117.0368

     20  H    Isotropic =    31.1355   Anisotropy =     8.9131

     21  H    Isotropic =    30.9448   Anisotropy =    11.5395

     22  H    Isotropic =    30.9914   Anisotropy =     7.6733

     23  H    Isotropic =    31.0258   Anisotropy =     5.6810

     24  H    Isotropic =    30.5888   Anisotropy =     7.3798

     25  H    Isotropic =    30.2424   Anisotropy =     5.0134

     26  H    Isotropic =    28.6359   Anisotropy =     4.2799

     27  H    Isotropic =    28.2593   Anisotropy =     6.6802

     28  H    Isotropic =    32.1806   Anisotropy =    15.1608

     29  H    Isotropic =    28.3348   Anisotropy =     7.5752

     30  H    Isotropic =    28.4236   Anisotropy =     5.6958

     31  H    Isotropic =    28.9337   Anisotropy =     4.2240

     32  C    Isotropic =   177.1948   Anisotropy =    19.6111

     33  H    Isotropic =    31.7369   Anisotropy =     8.2316

     34  H    Isotropic =    31.6242   Anisotropy =    10.7540

     35  H    Isotropic =    30.7768   Anisotropy =     6.8154

     36  H    Isotropic =    31.2036   Anisotropy =    11.2975

 The electronic state is 1-A.
 Alpha  occ. eigenvalues --  -24.80217 -24.79833 -19.20873 -14.37709 -10.33800
 Alpha  occ. eigenvalues --  -10.33781 -10.27256 -10.26937 -10.26635 -10.26184
 Alpha  occ. eigenvalues --  -10.25705 -10.25419 -10.25358 -10.23400 -10.22837
 Alpha  occ. eigenvalues --  -10.22005 -10.21498  -1.26990  -1.26799  -1.04860
 Alpha  occ. eigenvalues --   -0.94040  -0.90652  -0.83075  -0.80138  -0.78826
 Alpha  occ. eigenvalues --   -0.78221  -0.71478  -0.69371  -0.67624  -0.65873
 Alpha  occ. eigenvalues --   -0.64032  -0.62898  -0.58680  -0.57182  -0.55479
 Alpha  occ. eigenvalues --   -0.52285  -0.51759  -0.51534  -0.50746  -0.49646
 Alpha  occ. eigenvalues --   -0.49050  -0.48600  -0.47869  -0.46641  -0.45335
 Alpha  occ. eigenvalues --   -0.44060  -0.43381  -0.42509  -0.42066  -0.41408
 Alpha  occ. eigenvalues --   -0.40708  -0.39715  -0.39290  -0.38100  -0.38052
 Alpha  occ. eigenvalues --   -0.37501  -0.36920  -0.35561  -0.33984  -0.33043
 Alpha  occ. eigenvalues --   -0.32205  -0.28656  -0.27620  -0.27035  -0.24032
 Alpha virt. eigenvalues --   -0.02241  -0.00941   0.04660   0.05598   0.06134
 Alpha virt. eigenvalues --    0.07030   0.07825   0.09597   0.10252   0.10717
 Alpha virt. eigenvalues --    0.11178   0.11897   0.12238   0.13018   0.13414

 Mulliken charges:
               1
     1  C   -0.658266
     2  C   -0.499841
     3  C   -0.071446
     4  C   -0.303419
     5  C   -0.187175
     6  O   -0.589150
     7  N   -0.550938
     8  C   -0.357601
     9  C   -0.210359
    10  C   -0.268894
    11  C    0.309105
    12  C   -0.131302
    13  C    0.323226
    14  C   -0.262775
    15  H    0.234734
    16  H    0.238107
    17  H    0.238982
    18  F   -0.247619
    19  F   -0.252433
    20  H    0.228687
    21  H    0.229324
    22  H    0.218079
    23  H    0.234042
    24  H    0.236203
    25  H    0.218682
    26  H    0.222898
    27  H    0.214092
    28  H    0.402220
    29  H    0.251906
    30  H    0.224233
    31  H    0.217324
    32  C   -0.669309
    33  H    0.223426
    34  H    0.224197
    35  H    0.238177
    36  H    0.332884
 Sum of Mulliken charges =   0.00000

 Dipole moment (field-independent basis, Debye):
    X=              2.3565    Y=             -0.3467    Z=              0.5189  Tot=              2.4378
 Quadrupole moment (field-independent basis, Debye-Ang):
   XX=            -92.2838   YY=            -98.3847   ZZ=           -106.2389
   XY=              2.4999   XZ=             -2.9521   YZ=              3.1483

 Normal termination of Gaussian 09 at Wed Mar  6 11:36:02 2019.
