 Gaussian 09, Revision D.01,
 Gaussian 09:  EM64L-G09RevD.01 24-Apr-2013

 ----------------------------------------------------------------------
 # mPW1PW91/6-311g(d) geom=checkpoint nmr=giao scrf=(solvent=chloroform
 )
 ----------------------------------------------------------------------

 ------------
 AT3_1ginp012
 ------------
 Structure from the checkpoint file:  "AT3_1ginp012.chk"
 Charge =  0 Multiplicity = 1

                         Standard orientation:
 ---------------------------------------------------------------------
 Center     Atomic      Atomic             Coordinates (Angstroms)
 Number     Number       Type             X           Y           Z
 ---------------------------------------------------------------------
      1          6           0       -3.450706    2.560450   -0.700058
      2          6           0       -2.218259    1.950696   -0.023121
      3          6           0       -1.848314    0.539457   -0.527418
      4          6           0       -2.882807   -0.548888   -0.139760
      5          6           0       -2.857145   -0.890796    1.354742
      6          8           0       -4.002814   -1.698249    1.637014
      7          7           0       -0.511537    0.157745   -0.030838
      8          6           0        0.596133    0.769920   -0.779487
      9          6           0        4.429849   -0.758041    0.564883
     10          6           0        4.083197    0.564854    0.839110
     11          6           0        2.848539    1.033077    0.402570
     12          6           0        1.933539    0.251055   -0.304452
     13          6           0        2.337838   -1.063606   -0.545427
     14          6           0        3.553594   -1.591030   -0.133804
     15          1           0        5.387550   -1.143611    0.898231
     16          1           0        4.745621    1.230860    1.379758
     17          1           0        3.795784   -2.623253   -0.358368
     18          9           0        2.520908    2.318761    0.668736
     19          9           0        1.473937   -1.867986   -1.218340
     20          1           0       -3.612659    3.586715   -0.355613
     21          1           0       -3.329596    2.591923   -1.789041
     22          1           0       -4.364454    1.997605   -0.484932
     23          1           0       -1.364569    2.614839   -0.199845
     24          1           0       -2.355614    1.927388    1.063862
     25          1           0       -3.876923   -0.131046   -0.340123
     26          1           0       -2.875314    0.027698    1.957651
     27          1           0       -1.930262   -1.425485    1.607006
     28          1           0       -3.942405   -1.977429    2.559664
     29          1           0        0.510850    0.590619   -1.866295
     30          1           0        0.575079    1.851261   -0.634359
     31          1           0       -1.847963    0.586096   -1.634898
     32          6           0       -2.744732   -1.816978   -0.999023
     33          1           0       -1.764435   -2.295243   -0.880058
     34          1           0       -3.501117   -2.551024   -0.712095
     35          1           0       -2.873223   -1.585581   -2.061427
     36          1           0       -0.411048   -0.848534   -0.135455
 ---------------------------------------------------------------------

 SCF Done:  E(RmPW1PW91) =  -836.459305041     A.U. after   12 cycles

      1  C    Isotropic =   176.1721   Anisotropy =    21.1937

      2  C    Isotropic =   162.8147   Anisotropy =    19.6740

      3  C    Isotropic =   119.3793   Anisotropy =    21.8874

      4  C    Isotropic =   149.7130   Anisotropy =    22.9120

      5  C    Isotropic =   122.6474   Anisotropy =    57.6691

      6  O    Isotropic =   310.8002   Anisotropy =    93.8865

      7  N    Isotropic =   205.5896   Anisotropy =    56.1171

      8  C    Isotropic =   145.0594   Anisotropy =    51.8828

      9  C    Isotropic =    54.0455   Anisotropy =   188.2264

     10  C    Isotropic =    72.0015   Anisotropy =   146.6356

     11  C    Isotropic =    19.4844   Anisotropy =    96.8810

     12  C    Isotropic =    66.0498   Anisotropy =   137.8959

     13  C    Isotropic =    16.9897   Anisotropy =    95.4678

     14  C    Isotropic =    72.5496   Anisotropy =   146.1394

     15  H    Isotropic =    24.6292   Anisotropy =     3.1659

     16  H    Isotropic =    25.1334   Anisotropy =     4.7869

     17  H    Isotropic =    25.1067   Anisotropy =     5.2460

     18  F    Isotropic =   295.2675   Anisotropy =   118.2224

     19  F    Isotropic =   300.1866   Anisotropy =   116.9248

     20  H    Isotropic =    30.9735   Anisotropy =    11.2375

     21  H    Isotropic =    31.3273   Anisotropy =     9.0542

     22  H    Isotropic =    31.0188   Anisotropy =     7.6685

     23  H    Isotropic =    30.3668   Anisotropy =     7.3163

     24  H    Isotropic =    30.7221   Anisotropy =     5.7221

     25  H    Isotropic =    30.0187   Anisotropy =     6.5049

     26  H    Isotropic =    28.2527   Anisotropy =     5.4582

     27  H    Isotropic =    28.8418   Anisotropy =     6.9138

     28  H    Isotropic =    31.6321   Anisotropy =    20.1622

     29  H    Isotropic =    28.6243   Anisotropy =     5.9284

     30  H    Isotropic =    28.2390   Anisotropy =     7.8203

     31  H    Isotropic =    29.3849   Anisotropy =     2.5043

     32  C    Isotropic =   171.1739   Anisotropy =    29.2238

     33  H    Isotropic =    31.2142   Anisotropy =     7.4338

     34  H    Isotropic =    30.3540   Anisotropy =     9.3024

     35  H    Isotropic =    31.2886   Anisotropy =     9.3982

     36  H    Isotropic =    31.1426   Anisotropy =    10.4810

 The electronic state is 1-A.
 Alpha  occ. eigenvalues --  -24.80259 -24.79849 -19.20537 -14.37941 -10.33839
 Alpha  occ. eigenvalues --  -10.33829 -10.27060 -10.26992 -10.26693 -10.26230
 Alpha  occ. eigenvalues --  -10.26227 -10.25457 -10.25391 -10.23685 -10.22498
 Alpha  occ. eigenvalues --  -10.21804 -10.21638  -1.27047  -1.26819  -1.04554
 Alpha  occ. eigenvalues --   -0.94265  -0.90714  -0.83220  -0.79995  -0.78862
 Alpha  occ. eigenvalues --   -0.78249  -0.71573  -0.69690  -0.67554  -0.65890
 Alpha  occ. eigenvalues --   -0.64122  -0.61874  -0.58734  -0.56728  -0.55444
 Alpha  occ. eigenvalues --   -0.53776  -0.51786  -0.51571  -0.50774  -0.49370
 Alpha  occ. eigenvalues --   -0.48882  -0.48816  -0.47368  -0.46672  -0.45904
 Alpha  occ. eigenvalues --   -0.44329  -0.43861  -0.42590  -0.42137  -0.41611
 Alpha  occ. eigenvalues --   -0.40341  -0.39245  -0.38641  -0.38158  -0.38059
 Alpha  occ. eigenvalues --   -0.37295  -0.36839  -0.35928  -0.33456  -0.33090
 Alpha  occ. eigenvalues --   -0.32369  -0.28255  -0.27680  -0.27070  -0.24478
 Alpha virt. eigenvalues --   -0.02305  -0.00977   0.05052   0.05658   0.06213
 Alpha virt. eigenvalues --    0.06949   0.08133   0.08552   0.10248   0.10833
 Alpha virt. eigenvalues --    0.11189   0.11454   0.12592   0.12726   0.13238

 Mulliken charges:
               1
     1  C   -0.670056
     2  C   -0.424404
     3  C   -0.100552
     4  C   -0.341456
     5  C   -0.159262
     6  O   -0.614016
     7  N   -0.559702
     8  C   -0.363211
     9  C   -0.209839
    10  C   -0.268256
    11  C    0.311878
    12  C   -0.130266
    13  C    0.321025
    14  C   -0.262547
    15  H    0.234851
    16  H    0.238480
    17  H    0.239194
    18  F   -0.246555
    19  F   -0.252274
    20  H    0.228868
    21  H    0.221864
    22  H    0.230024
    23  H    0.229720
    24  H    0.221254
    25  H    0.240595
    26  H    0.217396
    27  H    0.203440
    28  H    0.411819
    29  H    0.223452
    30  H    0.257323
    31  H    0.210341
    32  C   -0.654075
    33  H    0.212770
    34  H    0.241809
    35  H    0.227935
    36  H    0.332434
 Sum of Mulliken charges =   0.00000

 Dipole moment (field-independent basis, Debye):
    X=              2.4730    Y=             -0.5699    Z=              0.7932  Tot=              2.6589
 Quadrupole moment (field-independent basis, Debye-Ang):
   XX=            -96.0933   YY=           -101.9426   ZZ=            -97.2145
   XY=             -7.2739   XZ=              0.3034   YZ=             -4.5420

 Normal termination of Gaussian 09 at Wed Mar  6 12:30:01 2019.
