 Gaussian 09, Revision D.01,
 Gaussian 09:  EM64L-G09RevD.01 24-Apr-2013

 --------------------------------------------------------
 #mPW1PW91/6-311g(d) nmr=(giao) scrf=(solvent=chloroform)
 --------------------------------------------------------

 -------------
 P_ng_2ginp015
 -------------
 Symbolic Z-matrix:
 Charge =  0 Multiplicity = 1

                         Standard orientation:
 ---------------------------------------------------------------------
 Center     Atomic      Atomic             Coordinates (Angstroms)
 Number     Number       Type             X           Y           Z
 ---------------------------------------------------------------------
      1          6           0       -2.449784   -0.030317   -0.554640
      2          6           0       -1.026053   -0.562024   -0.800953
      3          6           0        0.035150    0.467110   -0.310278
      4          6           0       -0.257542    0.737538    1.168120
      5          6           0       -1.651661    1.233971    1.396175
      6          1           0       -2.673355    0.758909   -1.282974
      7          1           0       -0.886635   -1.463480   -0.194520
      8          1           0       -0.156659   -0.167275    1.777384
      9          1           0        0.449598    1.462097    1.586114
     10          8           0       -2.634203    0.576791    0.744754
     11          8           0       -1.903853    2.103274    2.223245
     12          6           0       -3.565271   -1.080376   -0.716406
     13          6           0       -3.473117   -2.251793    0.253472
     14          6           0       -0.833649   -0.996904   -2.260762
     15          8           0        1.355358   -0.051739   -0.582597
     16         14           0        2.312468   -1.065545    0.335844
     17          6           0        2.986419   -0.202752    1.862238
     18          6           0        1.423102   -2.633096    0.859140
     19          6           0        3.800927   -1.594244   -0.706359
     20          1           0        2.112725   -3.309212    1.373599
     21          1           0        0.596900   -2.414090    1.540742
     22          1           0        1.021298   -3.157562   -0.012853
     23          1           0        4.454133   -2.257216   -0.131749
     24          1           0        3.466935   -2.124774   -1.602709
     25          1           0        4.378128   -0.718060   -1.015519
     26          1           0        3.749446   -0.821315    2.344417
     27          1           0        3.442880    0.753912    1.591591
     28          1           0        2.197239   -0.013055    2.594370
     29          1           0        0.196316   -1.308902   -2.457889
     30          1           0       -1.472687   -1.852885   -2.499786
     31          1           0       -1.084802   -0.191761   -2.958304
     32          1           0       -3.589790   -1.460423   -1.743101
     33          1           0       -4.530080   -0.586775   -0.541545
     34          1           0       -2.598363   -2.875216    0.047956
     35          1           0       -3.420599   -1.910017    1.291590
     36          1           0       -4.358754   -2.887984    0.154032
     37          6           0       -0.028377    1.795255   -1.145124
     38          6           0        0.882472    2.898861   -0.660736
     39          6           0        2.001935    3.277360   -1.290676
     40          1           0       -1.041712    2.209957   -1.158743
     41          1           0        0.227710    1.573430   -2.189402
     42          1           0        0.587439    3.430401    0.242337
     43          1           0        2.612414    4.086819   -0.902450
     44          1           0        2.339990    2.783970   -2.196894
 ---------------------------------------------------------------------

 SCF Done:  E(RmPW1PW91) =  -1064.37568951     A.U. after   12 cycles

      1  C    Isotropic =   104.3465   Anisotropy =    59.6614

      2  C    Isotropic =   145.2458   Anisotropy =    20.2928

      3  C    Isotropic =   104.9721   Anisotropy =    52.0489

      4  C    Isotropic =   143.5100   Anisotropy =    29.1622

      5  C    Isotropic =     8.3052   Anisotropy =    95.9423

      6  H    Isotropic =    27.9369   Anisotropy =     2.5941

      7  H    Isotropic =    29.8773   Anisotropy =     4.0224

      8  H    Isotropic =    29.6439   Anisotropy =     4.3933

      9  H    Isotropic =    29.1966   Anisotropy =     4.2464

     10  O    Isotropic =   106.9502   Anisotropy =   176.6965

     11  O    Isotropic =  -137.1449   Anisotropy =   589.7976

     12  C    Isotropic =   160.3797   Anisotropy =    22.2776

     13  C    Isotropic =   180.9029   Anisotropy =    11.1273

     14  C    Isotropic =   176.9169   Anisotropy =    19.0366

     15  O    Isotropic =   245.3386   Anisotropy =    18.4499

     16  Si   Isotropic =   335.9386   Anisotropy =    51.7875

     17  C    Isotropic =   185.1649   Anisotropy =    11.4432

     18  C    Isotropic =   185.4321   Anisotropy =     7.7167

     19  C    Isotropic =   186.6183   Anisotropy =    13.1194

     20  H    Isotropic =    32.2076   Anisotropy =    10.6713

     21  H    Isotropic =    32.1068   Anisotropy =     6.2423

     22  H    Isotropic =    31.9707   Anisotropy =     6.7792

     23  H    Isotropic =    32.3966   Anisotropy =     9.7740

     24  H    Isotropic =    32.0385   Anisotropy =     8.3621

     25  H    Isotropic =    31.9772   Anisotropy =     8.8448

     26  H    Isotropic =    32.3699   Anisotropy =    10.4105

     27  H    Isotropic =    31.9479   Anisotropy =     7.9614

     28  H    Isotropic =    32.1374   Anisotropy =     6.2081

     29  H    Isotropic =    30.5087   Anisotropy =     7.3699

     30  H    Isotropic =    31.3356   Anisotropy =     9.3505

     31  H    Isotropic =    31.5333   Anisotropy =     8.9922

     32  H    Isotropic =    30.3035   Anisotropy =     7.2962

     33  H    Isotropic =    30.0616   Anisotropy =     9.8780

     34  H    Isotropic =    31.2180   Anisotropy =     6.6547

     35  H    Isotropic =    31.0984   Anisotropy =     7.2597

     36  H    Isotropic =    31.1830   Anisotropy =    11.9094

     37  C    Isotropic =   145.2038   Anisotropy =    18.0013

     38  C    Isotropic =    45.6682   Anisotropy =   177.4929

     39  C    Isotropic =    61.6301   Anisotropy =   144.2534

     40  H    Isotropic =    30.0332   Anisotropy =     5.3711

     41  H    Isotropic =    29.6446   Anisotropy =     5.6951

     42  H    Isotropic =    25.7751   Anisotropy =     6.0822

     43  H    Isotropic =    26.6053   Anisotropy =     6.4569

     44  H    Isotropic =    26.6533   Anisotropy =     7.5237

 The electronic state is 1-A.
 Alpha  occ. eigenvalues --  -66.26922 -19.26406 -19.21196 -19.20439 -10.37640
 Alpha  occ. eigenvalues --  -10.32312 -10.30936 -10.25493 -10.25465 -10.24269
 Alpha  occ. eigenvalues --  -10.24046 -10.23979 -10.22859 -10.22680 -10.22262
 Alpha  occ. eigenvalues --  -10.20849 -10.20557 -10.20429  -5.32756  -3.66605
 Alpha  occ. eigenvalues --   -3.66371  -3.66335  -1.13660  -1.05223  -1.04066
 Alpha  occ. eigenvalues --   -0.86128  -0.83549  -0.80636  -0.78019  -0.74137
 Alpha  occ. eigenvalues --   -0.72840  -0.72057  -0.70341  -0.69918  -0.67059
 Alpha  occ. eigenvalues --   -0.63232  -0.62652  -0.58492  -0.55988  -0.53969
 Alpha  occ. eigenvalues --   -0.53083  -0.50651  -0.49600  -0.48463  -0.47642
 Alpha  occ. eigenvalues --   -0.47045  -0.45515  -0.44486  -0.44205  -0.43689
 Alpha  occ. eigenvalues --   -0.42974  -0.42535  -0.42393  -0.41790  -0.41717
 Alpha  occ. eigenvalues --   -0.40806  -0.40347  -0.39972  -0.39620  -0.39327
 Alpha  occ. eigenvalues --   -0.38366  -0.37581  -0.36908  -0.36862  -0.35994
 Alpha  occ. eigenvalues --   -0.35721  -0.34402  -0.33608  -0.32398  -0.31455
 Alpha  occ. eigenvalues --   -0.30343  -0.29104  -0.28468  -0.27253
 Alpha virt. eigenvalues --   -0.00808   0.01049   0.03811   0.05477   0.05709
 Alpha virt. eigenvalues --    0.06270   0.07673   0.08405   0.08433   0.08940
 Alpha virt. eigenvalues --    0.09180   0.10076   0.10388   0.11046   0.11440

 Mulliken charges:
               1
     1  C   -0.034505
     2  C   -0.313866
     3  C    0.175254
     4  C   -0.640119
     5  C    0.471157
     6  H    0.253397
     7  H    0.278845
     8  H    0.281920
     9  H    0.289070
    10  O   -0.320218
    11  O   -0.378341
    12  C   -0.452064
    13  C   -0.678635
    14  C   -0.679335
    15  O   -0.619697
    16  Si   1.419159
    17  C   -1.060664
    18  C   -1.085900
    19  C   -1.041774
    20  H    0.247354
    21  H    0.246437
    22  H    0.246282
    23  H    0.235056
    24  H    0.236511
    25  H    0.239082
    26  H    0.237422
    27  H    0.244594
    28  H    0.241528
    29  H    0.260406
    30  H    0.242442
    31  H    0.233082
    32  H    0.244238
    33  H    0.242160
    34  H    0.227901
    35  H    0.235813
    36  H    0.234543
    37  C   -0.513448
    38  C   -0.173844
    39  C   -0.450879
    40  H    0.253029
    41  H    0.261892
    42  H    0.218834
    43  H    0.224997
    44  H    0.220881
 Sum of Mulliken charges =   0.00000

 Dipole moment (field-independent basis, Debye):
    X=              1.0922    Y=             -3.7006    Z=             -2.9328  Tot=              4.8465
 Quadrupole moment (field-independent basis, Debye-Ang):
   XX=           -121.0977   YY=           -123.1309   ZZ=           -123.9291
   XY=              7.6648   XZ=             11.9114   YZ=             -6.7184

 Normal termination of Gaussian 09 at Thu Mar  8 13:17:47 2018.
