 Gaussian 09, Revision D.01,
 Gaussian 09:  EM64L-G09RevD.01 24-Apr-2013

 --------------------------------------------------------
 #mPW1PW91/6-311g(d) nmr=(giao) scrf=(solvent=chloroform)
 --------------------------------------------------------

 --------------------
 P_ng_correct1ginp016
 --------------------
 Symbolic Z-matrix:
 Charge =  0 Multiplicity = 1

                         Standard orientation:
 ---------------------------------------------------------------------
 Center     Atomic      Atomic             Coordinates (Angstroms)
 Number     Number       Type             X           Y           Z
 ---------------------------------------------------------------------
      1          6           0       -2.248577   -0.134362   -0.396636
      2          6           0       -0.772906   -0.006171   -0.802370
      3          6           0        0.064986    0.462683    0.420196
      4          6           0       -0.112993   -0.604335    1.511308
      5          6           0       -1.548959   -0.882400    1.848847
      6          1           0       -2.667427    0.862551   -0.213337
      7          1           0       -0.408112   -1.009750   -1.049128
      8          1           0        0.316100   -1.567254    1.215616
      9          1           0        0.408330   -0.295973    2.426114
     10          8           0       -2.436496   -0.874635    0.833043
     11          8           0       -1.886062   -1.215417    2.980724
     12          6           0       -3.155771   -0.790303   -1.453938
     13          6           0       -2.770945   -2.220114   -1.813129
     14          6           0       -0.594380    0.817524   -2.082575
     15          8           0        1.444625    0.683130    0.054624
     16         14           0        2.680436   -0.418792   -0.169126
     17          6           0        3.359125   -1.030383    1.474152
     18          6           0        2.187928   -1.897397   -1.212066
     19          6           0        4.101224    0.446790   -1.070482
     20          1           0        1.437333   -2.510247   -0.705752
     21          1           0        1.780309   -1.574529   -2.174520
     22          1           0        3.058237   -2.530779   -1.409479
     23          1           0        4.935695   -0.243999   -1.221693
     24          1           0        3.766280    0.808137   -2.047072
     25          1           0        4.456937    1.300831   -0.486968
     26          1           0        3.625189   -0.185534    2.116181
     27          1           0        2.626772   -1.646380    2.002420
     28          1           0        4.256821   -1.635310    1.314744
     29          1           0       -1.181775    1.738775   -2.065028
     30          1           0        0.452364    1.076132   -2.264704
     31          1           0       -0.931307    0.243718   -2.953037
     32          1           0       -3.183857   -0.182047   -2.364452
     33          1           0       -4.180405   -0.815887   -1.061057
     34          1           0       -2.718998   -2.856431   -0.924477
     35          1           0       -3.518293   -2.648351   -2.489136
     36          1           0       -1.805264   -2.259315   -2.325113
     37          6           0       -0.386671    1.832160    1.047912
     38          6           0       -0.310169    3.038076    0.150307
     39          6           0       -1.323930    3.887465   -0.060772
     40          1           0        0.280590    2.050023    1.894340
     41          1           0       -1.393937    1.755038    1.473438
     42          1           0        0.648712    3.226904   -0.330452
     43          1           0       -1.197370    4.748510   -0.710554
     44          1           0       -2.293329    3.754224    0.409221
 ---------------------------------------------------------------------

 SCF Done:  E(RmPW1PW91) =  -1064.37541234     A.U. after   13 cycles

      1  C    Isotropic =   105.0389   Anisotropy =    60.0810

      2  C    Isotropic =   145.4118   Anisotropy =    17.8565

      3  C    Isotropic =   105.1786   Anisotropy =    58.3063

      4  C    Isotropic =   138.4101   Anisotropy =    26.5126

      5  C    Isotropic =     8.7468   Anisotropy =    94.9470

      6  H    Isotropic =    27.7050   Anisotropy =     3.6491

      7  H    Isotropic =    29.8100   Anisotropy =     4.1375

      8  H    Isotropic =    29.5304   Anisotropy =     4.4152

      9  H    Isotropic =    29.3486   Anisotropy =     4.9574

     10  O    Isotropic =   104.1479   Anisotropy =   169.9213

     11  O    Isotropic =  -131.8105   Anisotropy =   584.1924

     12  C    Isotropic =   160.5337   Anisotropy =    22.1452

     13  C    Isotropic =   180.9867   Anisotropy =    11.4603

     14  C    Isotropic =   175.7716   Anisotropy =    12.8949

     15  O    Isotropic =   248.4017   Anisotropy =    21.4078

     16  Si   Isotropic =   335.0126   Anisotropy =    51.0941

     17  C    Isotropic =   184.4036   Anisotropy =    12.2482

     18  C    Isotropic =   185.4643   Anisotropy =     7.7566

     19  C    Isotropic =   186.4228   Anisotropy =    13.1589

     20  H    Isotropic =    32.0768   Anisotropy =     6.2810

     21  H    Isotropic =    31.9227   Anisotropy =     6.6035

     22  H    Isotropic =    32.1644   Anisotropy =    10.6801

     23  H    Isotropic =    32.3252   Anisotropy =     9.6664

     24  H    Isotropic =    31.9497   Anisotropy =     8.2414

     25  H    Isotropic =    31.9164   Anisotropy =     9.0321

     26  H    Isotropic =    31.9202   Anisotropy =     8.3808

     27  H    Isotropic =    32.0317   Anisotropy =     6.6756

     28  H    Isotropic =    32.2889   Anisotropy =    10.1524

     29  H    Isotropic =    31.0541   Anisotropy =     8.9882

     30  H    Isotropic =    30.5918   Anisotropy =     6.1109

     31  H    Isotropic =    31.4385   Anisotropy =     9.0329

     32  H    Isotropic =    30.2974   Anisotropy =     6.8222

     33  H    Isotropic =    30.0572   Anisotropy =     9.7590

     34  H    Isotropic =    31.0841   Anisotropy =     7.4003

     35  H    Isotropic =    31.2070   Anisotropy =    11.9665

     36  H    Isotropic =    31.2847   Anisotropy =     6.6619

     37  C    Isotropic =   137.9798   Anisotropy =    34.0122

     38  C    Isotropic =    40.4433   Anisotropy =   188.1992

     39  C    Isotropic =    67.1718   Anisotropy =   138.4772

     40  H    Isotropic =    29.5039   Anisotropy =     5.4004

     41  H    Isotropic =    29.6701   Anisotropy =     5.9253

     42  H    Isotropic =    25.3945   Anisotropy =     7.8495

     43  H    Isotropic =    26.9219   Anisotropy =     7.0476

     44  H    Isotropic =    26.8222   Anisotropy =     7.2191

 The electronic state is 1-A.
 Alpha  occ. eigenvalues --  -66.27089 -19.26461 -19.21458 -19.20174 -10.37597
 Alpha  occ. eigenvalues --  -10.32320 -10.30902 -10.25496 -10.25495 -10.24429
 Alpha  occ. eigenvalues --  -10.24126 -10.23947 -10.22638 -10.22521 -10.22238
 Alpha  occ. eigenvalues --  -10.20982 -10.20653 -10.20549  -5.32923  -3.66774
 Alpha  occ. eigenvalues --   -3.66536  -3.66501  -1.13591  -1.05040  -1.04267
 Alpha  occ. eigenvalues --   -0.86189  -0.83415  -0.80826  -0.77928  -0.74271
 Alpha  occ. eigenvalues --   -0.72998  -0.71901  -0.70449  -0.70018  -0.67031
 Alpha  occ. eigenvalues --   -0.63204  -0.62616  -0.58590  -0.56382  -0.53483
 Alpha  occ. eigenvalues --   -0.53218  -0.50865  -0.49432  -0.48313  -0.47520
 Alpha  occ. eigenvalues --   -0.46549  -0.45510  -0.44620  -0.44464  -0.43677
 Alpha  occ. eigenvalues --   -0.43050  -0.42825  -0.42117  -0.41790  -0.41125
 Alpha  occ. eigenvalues --   -0.40995  -0.40858  -0.40385  -0.39750  -0.39015
 Alpha  occ. eigenvalues --   -0.37999  -0.37772  -0.37454  -0.36695  -0.36453
 Alpha  occ. eigenvalues --   -0.35671  -0.34546  -0.33169  -0.32568  -0.31417
 Alpha  occ. eigenvalues --   -0.30466  -0.29340  -0.28498  -0.26846
 Alpha virt. eigenvalues --   -0.00546   0.01000   0.03686   0.05251   0.05707
 Alpha virt. eigenvalues --    0.06249   0.07685   0.08294   0.08621   0.08644
 Alpha virt. eigenvalues --    0.09705   0.10188   0.10420   0.10708   0.11385

 Mulliken charges:
               1
     1  C   -0.037408
     2  C   -0.296111
     3  C    0.159308
     4  C   -0.628931
     5  C    0.470027
     6  H    0.257720
     7  H    0.274721
     8  H    0.280404
     9  H    0.280573
    10  O   -0.318812
    11  O   -0.384095
    12  C   -0.453722
    13  C   -0.677628
    14  C   -0.694862
    15  O   -0.624962
    16  Si   1.410881
    17  C   -1.055808
    18  C   -1.088568
    19  C   -1.041805
    20  H    0.247199
    21  H    0.251399
    22  H    0.249491
    23  H    0.236101
    24  H    0.237597
    25  H    0.238667
    26  H    0.242561
    27  H    0.243713
    28  H    0.236835
    29  H    0.250439
    30  H    0.256889
    31  H    0.238643
    32  H    0.245990
    33  H    0.241743
    34  H    0.236128
    35  H    0.234471
    36  H    0.227559
    37  C   -0.489032
    38  C   -0.170155
    39  C   -0.462916
    40  H    0.259132
    41  H    0.245672
    42  H    0.224801
    43  H    0.224903
    44  H    0.221247
 Sum of Mulliken charges =   0.00000

 Dipole moment (field-independent basis, Debye):
    X=              1.9165    Y=              0.6628    Z=             -4.4685  Tot=              4.9071
 Quadrupole moment (field-independent basis, Debye-Ang):
   XX=           -119.8056   YY=           -120.7459   ZZ=           -130.1298
   XY=             -7.9641   XZ=             11.8281   YZ=              5.8014

 Normal termination of Gaussian 09 at Thu Mar  8 13:15:59 2018.
