 Gaussian 09, Revision D.01,
 Gaussian 09:  EM64L-G09RevD.01 24-Apr-2013

 --------------------------------------------------------
 #mPW1PW91/6-311g(d) nmr=(giao) scrf=(solvent=chloroform)
 --------------------------------------------------------

 -------------
 P_ng_2ginp018
 -------------
 Symbolic Z-matrix:
 Charge =  0 Multiplicity = 1

                         Standard orientation:
 ---------------------------------------------------------------------
 Center     Atomic      Atomic             Coordinates (Angstroms)
 Number     Number       Type             X           Y           Z
 ---------------------------------------------------------------------
      1          6           0        2.456247   -0.605479    0.271148
      2          6           0        1.053966   -1.232519    0.190965
      3          6           0       -0.073380   -0.151517    0.118349
      4          6           0        0.262553    0.690015   -1.113998
      5          6           0        1.619959    1.314693   -1.065988
      6          1           0        2.692319   -0.367178    1.315305
      7          1           0        0.993540   -1.814085   -0.742237
      8          1           0        0.206510    0.082764   -2.026539
      9          1           0       -0.463161    1.497497   -1.244674
     10          8           0        2.604427    0.636121   -0.452073
     11          8           0        1.852187    2.381954   -1.627275
     12          6           0        3.543393   -1.564698   -0.248974
     13          6           0        4.950943   -1.008015   -0.067355
     14          6           0        0.840480   -2.250913    1.326417
     15          8           0       -1.251393   -0.953324   -0.122054
     16         14           0       -2.848746   -0.510055   -0.297867
     17          6           0       -3.697199   -0.301767    1.367092
     18          6           0       -3.138137    1.010758   -1.349114
     19          6           0       -3.752126   -1.936810   -1.173805
     20          1           0       -4.209495    1.154639   -1.521061
     21          1           0       -2.757707    1.915990   -0.870673
     22          1           0       -2.654592    0.906065   -2.324910
     23          1           0       -4.813539   -1.699659   -1.289241
     24          1           0       -3.318998   -2.104228   -2.164034
     25          1           0       -3.658464   -2.856580   -0.589475
     26          1           0       -4.770756   -0.140885    1.229647
     27          1           0       -3.562404   -1.200001    1.977088
     28          1           0       -3.297499    0.549412    1.922048
     29          1           0       -0.152177   -2.708936    1.274413
     30          1           0        1.567973   -3.066088    1.267821
     31          1           0        0.946012   -1.784642    2.311144
     32          1           0        3.387318   -1.749806   -1.318833
     33          1           0        3.485466   -2.529684    0.264196
     34          1           0        5.094684   -0.085680   -0.638493
     35          1           0        5.154764   -0.796967    0.987178
     36          1           0        5.690591   -1.735587   -0.416583
     37          6           0       -0.139767    0.650050    1.461647
     38          6           0       -0.698211    2.048414    1.395393
     39          6           0        0.042066    3.156626    1.531367
     40          1           0        0.860593    0.726001    1.902460
     41          1           0       -0.737280    0.090438    2.192419
     42          1           0       -1.768893    2.165832    1.260464
     43          1           0       -0.416497    4.140526    1.485864
     44          1           0        1.117655    3.120580    1.679205
 ---------------------------------------------------------------------

 SCF Done:  E(RmPW1PW91) =  -1064.37392696     A.U. after   13 cycles

      1  C    Isotropic =   101.7262   Anisotropy =    47.8873

      2  C    Isotropic =   136.0694   Anisotropy =    33.0567

      3  C    Isotropic =   107.2633   Anisotropy =    56.0775

      4  C    Isotropic =   142.6926   Anisotropy =    29.5461

      5  C    Isotropic =    11.0813   Anisotropy =    92.6423

      6  H    Isotropic =    28.1395   Anisotropy =     1.7579

      7  H    Isotropic =    30.0920   Anisotropy =     3.8806

      8  H    Isotropic =    29.8193   Anisotropy =     4.4269

      9  H    Isotropic =    29.2363   Anisotropy =     4.3188

     10  O    Isotropic =   104.1730   Anisotropy =   209.6372

     11  O    Isotropic =  -113.0984   Anisotropy =   560.9842

     12  C    Isotropic =   155.0839   Anisotropy =    27.9794

     13  C    Isotropic =   174.6549   Anisotropy =    22.1578

     14  C    Isotropic =   175.4145   Anisotropy =    23.0446

     15  O    Isotropic =   230.8242   Anisotropy =    52.2681

     16  Si   Isotropic =   334.9354   Anisotropy =    56.1593

     17  C    Isotropic =   185.8350   Anisotropy =    10.8668

     18  C    Isotropic =   185.2771   Anisotropy =     9.0677

     19  C    Isotropic =   185.1263   Anisotropy =    14.1550

     20  H    Isotropic =    32.1372   Anisotropy =    10.4255

     21  H    Isotropic =    31.8438   Anisotropy =     7.0201

     22  H    Isotropic =    31.9082   Anisotropy =     7.0877

     23  H    Isotropic =    32.3703   Anisotropy =     9.6153

     24  H    Isotropic =    32.1145   Anisotropy =     8.3307

     25  H    Isotropic =    31.9987   Anisotropy =     8.4932

     26  H    Isotropic =    32.2777   Anisotropy =    10.1981

     27  H    Isotropic =    31.8896   Anisotropy =     8.0165

     28  H    Isotropic =    31.9488   Anisotropy =     6.8677

     29  H    Isotropic =    30.3534   Anisotropy =     7.8834

     30  H    Isotropic =    31.2726   Anisotropy =     9.7480

     31  H    Isotropic =    31.5147   Anisotropy =     7.3490

     32  H    Isotropic =    30.5527   Anisotropy =     5.3579

     33  H    Isotropic =    30.2095   Anisotropy =     5.9388

     34  H    Isotropic =    30.4832   Anisotropy =     7.7454

     35  H    Isotropic =    31.1895   Anisotropy =     8.9479

     36  H    Isotropic =    30.9865   Anisotropy =    11.3242

     37  C    Isotropic =   146.7765   Anisotropy =    23.3585

     38  C    Isotropic =    46.7875   Anisotropy =   175.0527

     39  C    Isotropic =    59.7789   Anisotropy =   146.9903

     40  H    Isotropic =    29.6930   Anisotropy =     5.3477

     41  H    Isotropic =    29.4696   Anisotropy =     3.8983

     42  H    Isotropic =    25.7602   Anisotropy =     5.8775

     43  H    Isotropic =    26.6149   Anisotropy =     6.7193

     44  H    Isotropic =    26.7339   Anisotropy =     7.3072

 The electronic state is 1-A.
 Alpha  occ. eigenvalues --  -66.26972 -19.26421 -19.21374 -19.19531 -10.37183
 Alpha  occ. eigenvalues --  -10.32240 -10.30804 -10.25292 -10.24931 -10.24874
 Alpha  occ. eigenvalues --  -10.24594 -10.23846 -10.23265 -10.22630 -10.21954
 Alpha  occ. eigenvalues --  -10.20809 -10.20586 -10.20422  -5.32804  -3.66651
 Alpha  occ. eigenvalues --   -3.66423  -3.66382  -1.13495  -1.04591  -1.04254
 Alpha  occ. eigenvalues --   -0.86069  -0.83586  -0.80928  -0.77874  -0.73982
 Alpha  occ. eigenvalues --   -0.72941  -0.72204  -0.70384  -0.69791  -0.66670
 Alpha  occ. eigenvalues --   -0.64374  -0.61773  -0.59080  -0.55875  -0.53555
 Alpha  occ. eigenvalues --   -0.52815  -0.50339  -0.49366  -0.49079  -0.47901
 Alpha  occ. eigenvalues --   -0.46485  -0.45383  -0.45005  -0.44273  -0.43706
 Alpha  occ. eigenvalues --   -0.42624  -0.42533  -0.42114  -0.41945  -0.41266
 Alpha  occ. eigenvalues --   -0.41089  -0.40307  -0.39710  -0.39438  -0.38873
 Alpha  occ. eigenvalues --   -0.38566  -0.37916  -0.36899  -0.36517  -0.35992
 Alpha  occ. eigenvalues --   -0.35651  -0.34504  -0.33883  -0.31664  -0.31034
 Alpha  occ. eigenvalues --   -0.30303  -0.29577  -0.28385  -0.27353
 Alpha virt. eigenvalues --    0.00094   0.00452   0.04073   0.05656   0.06066
 Alpha virt. eigenvalues --    0.06594   0.07191   0.07856   0.08412   0.08716
 Alpha virt. eigenvalues --    0.09145   0.09988   0.10664   0.10842   0.11209

 Mulliken charges:
               1
     1  C   -0.027060
     2  C   -0.316841
     3  C    0.188237
     4  C   -0.617077
     5  C    0.498257
     6  H    0.242791
     7  H    0.250009
     8  H    0.288578
     9  H    0.285468
    10  O   -0.320940
    11  O   -0.394210
    12  C   -0.440123
    13  C   -0.662686
    14  C   -0.670187
    15  O   -0.616313
    16  Si   1.403192
    17  C   -1.071295
    18  C   -1.084795
    19  C   -1.038223
    20  H    0.247899
    21  H    0.251910
    22  H    0.249458
    23  H    0.233225
    24  H    0.235413
    25  H    0.234932
    26  H    0.239682
    27  H    0.242119
    28  H    0.251392
    29  H    0.260417
    30  H    0.238640
    31  H    0.229318
    32  H    0.232360
    33  H    0.241581
    34  H    0.238799
    35  H    0.221995
    36  H    0.228124
    37  C   -0.543896
    38  C   -0.211638
    39  C   -0.441906
    40  H    0.265366
    41  H    0.279219
    42  H    0.221104
    43  H    0.229554
    44  H    0.228152
 Sum of Mulliken charges =   0.00000

 Dipole moment (field-independent basis, Debye):
    X=             -1.8113    Y=             -3.5518    Z=              2.3621  Tot=              4.6342
 Quadrupole moment (field-independent basis, Debye-Ang):
   XX=           -118.1513   YY=           -126.8153   ZZ=           -121.0249
   XY=            -13.8707   XZ=              6.4610   YZ=              6.3424

 Normal termination of Gaussian 09 at Thu Mar  8 13:22:34 2018.
