 Gaussian 09, Revision D.01,
 Gaussian 09:  EM64L-G09RevD.01 24-Apr-2013

 --------------------------------------------------------
 #mPW1PW91/6-311g(d) nmr=(giao) scrf=(solvent=chloroform)
 --------------------------------------------------------

 -------------
 P_ng_3ginp001
 -------------
 Symbolic Z-matrix:
 Charge =  0 Multiplicity = 1

                         Standard orientation:
 ---------------------------------------------------------------------
 Center     Atomic      Atomic             Coordinates (Angstroms)
 Number     Number       Type             X           Y           Z
 ---------------------------------------------------------------------
      1          6           0        2.360046    0.081901    0.298533
      2          6           0        0.999170    0.256616    0.986432
      3          6           0       -0.136509    0.124811   -0.080607
      4          6           0        0.008635   -1.254718   -0.733874
      5          6           0        1.400105   -1.582441   -1.203435
      6          1           0        2.518585    0.895310   -0.417902
      7          1           0        0.953848    1.257391    1.435845
      8          1           0       -0.290742   -2.053765   -0.046647
      9          1           0       -0.654404   -1.327754   -1.604360
     10          8           0        2.432744   -1.147387   -0.450899
     11          8           0        1.587780   -2.319352   -2.167068
     12          6           0        3.550349    0.113549    1.271017
     13          6           0        4.887261    0.176682    0.540571
     14          6           0        0.814838   -0.723691    2.164582
     15          8           0       -1.366901    0.292076    0.659880
     16         14           0       -2.919755   -0.172937    0.244658
     17          6           0       -3.410189    0.271841   -1.508430
     18          6           0       -3.170386   -2.022232    0.483984
     19          6           0       -4.134846    0.704106    1.401157
     20          1           0       -4.231553   -2.276565    0.403714
     21          1           0       -2.628972   -2.594893   -0.273742
     22          1           0       -2.816773   -2.332217    1.471654
     23          1           0       -4.048772    1.788767    1.289147
     24          1           0       -5.162720    0.409966    1.170195
     25          1           0       -3.922996    0.443780    2.442192
     26          1           0       -4.454648    0.001196   -1.691693
     27          1           0       -3.306819    1.347115   -1.680850
     28          1           0       -2.794908   -0.259281   -2.239800
     29          1           0       -0.186852   -0.651947    2.599019
     30          1           0        0.983814   -1.763190    1.867907
     31          1           0        1.516586   -0.492581    2.972944
     32          1           0        3.558928   -0.789408    1.892248
     33          1           0        3.468750    0.982721    1.933542
     34          1           0        5.709115    0.214831    1.262624
     35          1           0        5.037068   -0.702550   -0.093684
     36          1           0        4.948027    1.070280   -0.088750
     37          6           0       -0.040562    1.239432   -1.179209
     38          6           0       -0.051147    2.648664   -0.645025
     39          6           0        0.893708    3.561389   -0.904224
     40          1           0       -0.890920    1.157798   -1.862884
     41          1           0        0.843825    1.085700   -1.808820
     42          1           0       -0.895224    2.927308   -0.015751
     43          1           0        0.822331    4.563715   -0.491586
     44          1           0        1.750175    3.341241   -1.533919
 ---------------------------------------------------------------------

 SCF Done:  E(RmPW1PW91) =  -1064.37761235     A.U. after   12 cycles

      1  C    Isotropic =   106.4354   Anisotropy =    42.5842

      2  C    Isotropic =   144.1340   Anisotropy =    27.9433

      3  C    Isotropic =   105.0720   Anisotropy =    56.5792

      4  C    Isotropic =   144.4169   Anisotropy =    35.0163

      5  C    Isotropic =     8.9022   Anisotropy =    94.8742

      6  H    Isotropic =    28.0947   Anisotropy =     3.4284

      7  H    Isotropic =    30.0357   Anisotropy =     5.4416

      8  H    Isotropic =    29.2517   Anisotropy =     4.6486

      9  H    Isotropic =    29.5441   Anisotropy =     3.6105

     10  O    Isotropic =   120.6377   Anisotropy =   202.3067

     11  O    Isotropic =  -135.5760   Anisotropy =   601.3496

     12  C    Isotropic =   156.9747   Anisotropy =    21.9353

     13  C    Isotropic =   174.1844   Anisotropy =    23.0378

     14  C    Isotropic =   178.0355   Anisotropy =    15.3027

     15  O    Isotropic =   245.1655   Anisotropy =    19.2685

     16  Si   Isotropic =   334.2380   Anisotropy =    54.3353

     17  C    Isotropic =   185.2779   Anisotropy =     6.7836

     18  C    Isotropic =   184.8582   Anisotropy =    10.9295

     19  C    Isotropic =   186.2867   Anisotropy =    13.4214

     20  H    Isotropic =    32.2834   Anisotropy =    10.4121

     21  H    Isotropic =    32.0370   Anisotropy =     6.3939

     22  H    Isotropic =    31.9505   Anisotropy =     7.4196

     23  H    Isotropic =    32.0122   Anisotropy =     8.6403

     24  H    Isotropic =    32.3443   Anisotropy =     9.7519

     25  H    Isotropic =    31.9561   Anisotropy =     8.6006

     26  H    Isotropic =    32.1553   Anisotropy =    10.4638

     27  H    Isotropic =    31.8911   Anisotropy =     7.3046

     28  H    Isotropic =    31.9562   Anisotropy =     6.5237

     29  H    Isotropic =    30.6994   Anisotropy =     7.9868

     30  H    Isotropic =    31.3945   Anisotropy =     7.1235

     31  H    Isotropic =    31.0750   Anisotropy =     9.7524

     32  H    Isotropic =    30.2028   Anisotropy =     4.5438

     33  H    Isotropic =    30.6629   Anisotropy =     6.7217

     34  H    Isotropic =    30.9675   Anisotropy =    11.4444

     35  H    Isotropic =    30.6120   Anisotropy =     8.0857

     36  H    Isotropic =    31.2312   Anisotropy =     8.6640

     37  C    Isotropic =   141.3135   Anisotropy =    35.3604

     38  C    Isotropic =    44.7292   Anisotropy =   180.3162

     39  C    Isotropic =    64.7653   Anisotropy =   141.1606

     40  H    Isotropic =    29.4671   Anisotropy =     6.3662

     41  H    Isotropic =    29.8017   Anisotropy =     5.1786

     42  H    Isotropic =    25.6908   Anisotropy =     7.2336

     43  H    Isotropic =    26.7109   Anisotropy =     6.9828

     44  H    Isotropic =    26.7651   Anisotropy =     7.2517

 The electronic state is 1-A.
 Alpha  occ. eigenvalues --  -66.27023 -19.26374 -19.21358 -19.20331 -10.37665
 Alpha  occ. eigenvalues --  -10.32220 -10.30482 -10.25535 -10.25067 -10.24633
 Alpha  occ. eigenvalues --  -10.24442 -10.23755 -10.23043 -10.22248 -10.21956
 Alpha  occ. eigenvalues --  -10.20871 -10.20610 -10.20541  -5.32853  -3.66700
 Alpha  occ. eigenvalues --   -3.66468  -3.66435  -1.13677  -1.05130  -1.04140
 Alpha  occ. eigenvalues --   -0.85945  -0.83236  -0.81102  -0.77642  -0.74066
 Alpha  occ. eigenvalues --   -0.73277  -0.71446  -0.70306  -0.69987  -0.66576
 Alpha  occ. eigenvalues --   -0.64055  -0.62190  -0.58728  -0.54982  -0.53471
 Alpha  occ. eigenvalues --   -0.53208  -0.51317  -0.50263  -0.47961  -0.47487
 Alpha  occ. eigenvalues --   -0.46746  -0.45330  -0.45175  -0.44688  -0.43906
 Alpha  occ. eigenvalues --   -0.42861  -0.42727  -0.42512  -0.41637  -0.40986
 Alpha  occ. eigenvalues --   -0.40657  -0.40359  -0.39685  -0.39337  -0.38857
 Alpha  occ. eigenvalues --   -0.38341  -0.37922  -0.37088  -0.36699  -0.36398
 Alpha  occ. eigenvalues --   -0.35663  -0.34539  -0.33309  -0.31797  -0.31159
 Alpha  occ. eigenvalues --   -0.30336  -0.29678  -0.28601  -0.27347
 Alpha virt. eigenvalues --   -0.00761   0.00797   0.03821   0.05489   0.05918
 Alpha virt. eigenvalues --    0.06564   0.07385   0.08095   0.08380   0.09132
 Alpha virt. eigenvalues --    0.09382   0.09888   0.10343   0.10854   0.11191

 Mulliken charges:
               1
     1  C   -0.057892
     2  C   -0.282065
     3  C    0.172512
     4  C   -0.647713
     5  C    0.474838
     6  H    0.259085
     7  H    0.256047
     8  H    0.308955
     9  H    0.267538
    10  O   -0.314036
    11  O   -0.378928
    12  C   -0.462749
    13  C   -0.662145
    14  C   -0.682832
    15  O   -0.630125
    16  Si   1.429929
    17  C   -1.085704
    18  C   -1.067200
    19  C   -1.041079
    20  H    0.239860
    21  H    0.241750
    22  H    0.242541
    23  H    0.237460
    24  H    0.235649
    25  H    0.237501
    26  H    0.247657
    27  H    0.246888
    28  H    0.246677
    29  H    0.260765
    30  H    0.228094
    31  H    0.243840
    32  H    0.243625
    33  H    0.240862
    34  H    0.228659
    35  H    0.236707
    36  H    0.221638
    37  C   -0.506202
    38  C   -0.177069
    39  C   -0.454772
    40  H    0.275469
    41  H    0.249252
    42  H    0.225274
    43  H    0.227525
    44  H    0.223914
 Sum of Mulliken charges =   0.00000

 Dipole moment (field-independent basis, Debye):
    X=             -1.7906    Y=              2.9720    Z=              2.5546  Tot=              4.3087
 Quadrupole moment (field-independent basis, Debye-Ang):
   XX=           -116.4701   YY=           -125.2691   ZZ=           -125.7145
   XY=             10.1891   XZ=              9.2119   YZ=             -8.2482

 Normal termination of Gaussian 09 at Thu Mar  8 13:20:41 2018.
