 Gaussian 09, Revision D.01,
 Gaussian 09:  EM64L-G09RevD.01 24-Apr-2013

 --------------------------------------------------------
 #mPW1PW91/6-311g(d) nmr=(giao) scrf=(solvent=chloroform)
 --------------------------------------------------------

 -------------
 P_ng_3ginp007
 -------------
 Symbolic Z-matrix:
 Charge =  0 Multiplicity = 1

                         Standard orientation:
 ---------------------------------------------------------------------
 Center     Atomic      Atomic             Coordinates (Angstroms)
 Number     Number       Type             X           Y           Z
 ---------------------------------------------------------------------
      1          6           0        2.452632    0.293602    0.256572
      2          6           0        1.096973    0.326867    0.974966
      3          6           0       -0.046342    0.125279   -0.072948
      4          6           0        0.203372   -1.224610   -0.757766
      5          6           0        1.605649   -1.417559   -1.267632
      6          1           0        2.523899    1.143513   -0.431486
      7          1           0        0.972616    1.304505    1.457895
      8          1           0       -0.007775   -2.059892   -0.080970
      9          1           0       -0.471603   -1.341703   -1.613744
     10          8           0        2.615636   -0.897356   -0.539033
     11          8           0        1.833011   -2.121599   -2.247221
     12          6           0        3.656983    0.394997    1.206969
     13          6           0        4.967636    0.596966    0.454441
     14          6           0        1.027122   -0.698814    2.127369
     15          8           0       -1.266217    0.169138    0.698122
     16         14           0       -2.783079   -0.417974    0.310362
     17          6           0       -3.327950   -0.074208   -1.449108
     18          6           0       -2.882822   -2.275171    0.606669
     19          6           0       -4.052553    0.394280    1.454742
     20          1           0       -3.919096   -2.617967    0.531070
     21          1           0       -2.290933   -2.823028   -0.131389
     22          1           0       -2.509938   -2.523821    1.604523
     23          1           0       -4.053551    1.478570    1.310484
     24          1           0       -5.056142    0.013571    1.244364
     25          1           0       -3.811372    0.182632    2.500418
     26          1           0       -4.339235   -0.458824   -1.614356
     27          1           0       -3.342917    0.999961   -1.651808
     28          1           0       -2.666761   -0.556162   -2.174038
     29          1           0        0.031512   -0.734033    2.579845
     30          1           0        1.288029   -1.709222    1.798544
     31          1           0        1.719107   -0.424368    2.930660
     32          1           0        3.755945   -0.524141    1.795832
     33          1           0        3.515967    1.231253    1.901131
     34          1           0        5.798541    0.681813    1.162020
     35          1           0        5.178343   -0.244735   -0.212577
     36          1           0        4.938449    1.512730   -0.144513
     37          6           0       -0.076186    1.262429   -1.154812
     38          6           0       -0.208970    2.667010   -0.620774
     39          6           0       -1.238292    3.480804   -0.888828
     40          1           0       -0.897019    1.073740   -1.854905
     41          1           0        0.827797    1.229821   -1.773918
     42          1           0        0.596856    3.047576    0.002244
     43          1           0       -1.271383    4.486553   -0.480396
     44          1           0       -2.069170    3.170603   -1.514103
 ---------------------------------------------------------------------

 SCF Done:  E(RmPW1PW91) =  -1064.37568388     A.U. after   12 cycles

      1  C    Isotropic =   105.7939   Anisotropy =    40.6499

      2  C    Isotropic =   144.4586   Anisotropy =    29.1372

      3  C    Isotropic =   104.4791   Anisotropy =    52.4781

      4  C    Isotropic =   144.3705   Anisotropy =    35.0224

      5  C    Isotropic =     9.1260   Anisotropy =    94.4703

      6  H    Isotropic =    27.9170   Anisotropy =     3.7146

      7  H    Isotropic =    29.9334   Anisotropy =     5.4158

      8  H    Isotropic =    29.1993   Anisotropy =     4.3916

      9  H    Isotropic =    29.5560   Anisotropy =     3.7476

     10  O    Isotropic =   119.1034   Anisotropy =   202.2623

     11  O    Isotropic =  -133.9430   Anisotropy =   598.8383

     12  C    Isotropic =   156.8422   Anisotropy =    21.9404

     13  C    Isotropic =   174.1805   Anisotropy =    23.0426

     14  C    Isotropic =   177.9395   Anisotropy =    15.0573

     15  O    Isotropic =   244.6914   Anisotropy =    23.3181

     16  Si   Isotropic =   335.0821   Anisotropy =    53.9278

     17  C    Isotropic =   184.3732   Anisotropy =     6.2289

     18  C    Isotropic =   184.7512   Anisotropy =    11.3377

     19  C    Isotropic =   186.5426   Anisotropy =    13.1062

     20  H    Isotropic =    32.3336   Anisotropy =    10.3713

     21  H    Isotropic =    32.0835   Anisotropy =     6.2845

     22  H    Isotropic =    31.9818   Anisotropy =     7.5937

     23  H    Isotropic =    32.0512   Anisotropy =     8.3467

     24  H    Isotropic =    32.4228   Anisotropy =     9.7664

     25  H    Isotropic =    32.0312   Anisotropy =     8.7122

     26  H    Isotropic =    32.1454   Anisotropy =    10.4126

     27  H    Isotropic =    31.7846   Anisotropy =     7.7411

     28  H    Isotropic =    31.9162   Anisotropy =     6.2109

     29  H    Isotropic =    30.6655   Anisotropy =     7.8704

     30  H    Isotropic =    31.3443   Anisotropy =     7.0553

     31  H    Isotropic =    31.0291   Anisotropy =     9.7836

     32  H    Isotropic =    30.1317   Anisotropy =     4.4705

     33  H    Isotropic =    30.5643   Anisotropy =     7.0010

     34  H    Isotropic =    30.9287   Anisotropy =    11.3790

     35  H    Isotropic =    30.5749   Anisotropy =     8.0742

     36  H    Isotropic =    31.1909   Anisotropy =     8.7928

     37  C    Isotropic =   142.5157   Anisotropy =    34.5393

     38  C    Isotropic =    46.1639   Anisotropy =   177.1056

     39  C    Isotropic =    62.9971   Anisotropy =   143.1181

     40  H    Isotropic =    29.6161   Anisotropy =     4.2106

     41  H    Isotropic =    29.6630   Anisotropy =     4.8925

     42  H    Isotropic =    25.8701   Anisotropy =     7.2971

     43  H    Isotropic =    26.6653   Anisotropy =     6.5390

     44  H    Isotropic =    26.6718   Anisotropy =     6.5327

 The electronic state is 1-A.
 Alpha  occ. eigenvalues --  -66.26931 -19.26490 -19.21226 -19.20331 -10.37702
 Alpha  occ. eigenvalues --  -10.32277 -10.30696 -10.25548 -10.25290 -10.24711
 Alpha  occ. eigenvalues --  -10.24505 -10.23882 -10.23073 -10.22343 -10.22032
 Alpha  occ. eigenvalues --  -10.20847 -10.20477 -10.20451  -5.32759  -3.66605
 Alpha  occ. eigenvalues --   -3.66374  -3.66341  -1.13747  -1.05160  -1.04073
 Alpha  occ. eigenvalues --   -0.86002  -0.83329  -0.81141  -0.77722  -0.74037
 Alpha  occ. eigenvalues --   -0.73327  -0.71464  -0.70283  -0.69874  -0.66600
 Alpha  occ. eigenvalues --   -0.64239  -0.62415  -0.58597  -0.55164  -0.53660
 Alpha  occ. eigenvalues --   -0.53429  -0.51270  -0.49767  -0.48404  -0.47716
 Alpha  occ. eigenvalues --   -0.47022  -0.45544  -0.45098  -0.44318  -0.43559
 Alpha  occ. eigenvalues --   -0.42764  -0.42749  -0.42351  -0.42043  -0.40938
 Alpha  occ. eigenvalues --   -0.40721  -0.40194  -0.39882  -0.39600  -0.39044
 Alpha  occ. eigenvalues --   -0.38636  -0.37288  -0.37053  -0.36702  -0.36427
 Alpha  occ. eigenvalues --   -0.35730  -0.34409  -0.33460  -0.31750  -0.31271
 Alpha  occ. eigenvalues --   -0.30386  -0.29624  -0.28442  -0.27480
 Alpha virt. eigenvalues --   -0.00928   0.00967   0.03946   0.05149   0.06124
 Alpha virt. eigenvalues --    0.06561   0.07609   0.07976   0.08480   0.08636
 Alpha virt. eigenvalues --    0.09048   0.09741   0.10662   0.11076   0.11246

 Mulliken charges:
               1
     1  C   -0.055331
     2  C   -0.308625
     3  C    0.200572
     4  C   -0.650136
     5  C    0.476438
     6  H    0.256711
     7  H    0.257185
     8  H    0.308838
     9  H    0.267718
    10  O   -0.312863
    11  O   -0.379125
    12  C   -0.460957
    13  C   -0.661865
    14  C   -0.683133
    15  O   -0.626104
    16  Si   1.428846
    17  C   -1.092151
    18  C   -1.065366
    19  C   -1.038820
    20  H    0.239290
    21  H    0.240404
    22  H    0.242079
    23  H    0.239260
    24  H    0.234076
    25  H    0.237036
    26  H    0.246978
    27  H    0.251046
    28  H    0.246411
    29  H    0.262290
    30  H    0.229395
    31  H    0.243996
    32  H    0.244916
    33  H    0.239708
    34  H    0.229208
    35  H    0.237441
    36  H    0.221878
    37  C   -0.531913
    38  C   -0.146130
    39  C   -0.466209
    40  H    0.266963
    41  H    0.258149
    42  H    0.216972
    43  H    0.226374
    44  H    0.228550
 Sum of Mulliken charges =   0.00000

 Dipole moment (field-independent basis, Debye):
    X=             -1.6015    Y=              2.8009    Z=              2.7079  Tot=              4.2122
 Quadrupole moment (field-independent basis, Debye-Ang):
   XX=           -118.1855   YY=           -122.9146   ZZ=           -126.5104
   XY=             10.3018   XZ=             12.7048   YZ=             -7.4048

 Normal termination of Gaussian 09 at Thu Mar  8 13:20:05 2018.
