 Gaussian 09, Revision D.01,
 Gaussian 09:  EM64L-G09RevD.01 24-Apr-2013

 --------------------------------------------------------
 #mPW1PW91/6-311g(d) nmr=(giao) scrf=(solvent=chloroform)
 --------------------------------------------------------

 -------------
 P_ng_2ginp008
 -------------
 Symbolic Z-matrix:
 Charge =  0 Multiplicity = 1

                         Standard orientation:
 ---------------------------------------------------------------------
 Center     Atomic      Atomic             Coordinates (Angstroms)
 Number     Number       Type             X           Y           Z
 ---------------------------------------------------------------------
      1          6           0       -2.209838   -0.239090   -0.281187
      2          6           0       -0.815048   -0.319481   -0.922321
      3          6           0        0.116304    0.721955   -0.215880
      4          6           0       -0.226437    0.873525    1.284724
      5          6           0       -1.066106   -0.232295    1.858782
      6          1           0       -2.597586    0.786545   -0.279327
      7          1           0       -0.430964   -1.322644   -0.701938
      8          1           0        0.687531    0.959409    1.883386
      9          1           0       -0.819032    1.777884    1.472746
     10          8           0       -2.086589   -0.674975    1.090114
     11          8           0       -0.897352   -0.657931    2.996365
     12          6           0       -3.251328   -1.149449   -0.950328
     13          6           0       -4.605492   -1.097545   -0.251802
     14          6           0       -0.823396   -0.207732   -2.450696
     15          8           0        1.515244    0.440285   -0.437529
     16         14           0        2.392886   -0.940859   -0.101654
     17          6           0        2.409087   -2.085025   -1.600009
     18          6           0        4.186370   -0.447964    0.240129
     19          6           0        1.795111   -1.919871    1.373969
     20          1           0        4.797377   -1.334768    0.431645
     21          1           0        4.604782    0.084320   -0.618968
     22          1           0        4.239661    0.207254    1.114389
     23          1           0        1.791199   -1.305475    2.278394
     24          1           0        0.788528   -2.313083    1.210181
     25          1           0        2.456069   -2.773171    1.556119
     26          1           0        3.073946   -2.935676   -1.423344
     27          1           0        1.407783   -2.471478   -1.808240
     28          1           0        2.763145   -1.548651   -2.485195
     29          1           0        0.192874   -0.127299   -2.849402
     30          1           0       -1.269014   -1.100445   -2.902258
     31          1           0       -1.400237    0.657956   -2.791510
     32          1           0       -2.899738   -2.188212   -0.937853
     33          1           0       -3.396849   -0.857520   -1.995670
     34          1           0       -4.540987   -1.465917    0.776654
     35          1           0       -4.994496   -0.074640   -0.228700
     36          1           0       -5.327869   -1.723180   -0.785793
     37          6           0       -0.061732    2.142302   -0.881763
     38          6           0        0.727829    3.252561   -0.227185
     39          6           0        0.191696    4.380285    0.256369
     40          1           0       -1.123807    2.413546   -0.912225
     41          1           0        0.292276    2.107164   -1.919929
     42          1           0        1.806303    3.110666   -0.169087
     43          1           0        0.821165    5.141932    0.707596
     44          1           0       -0.875022    4.575429    0.213077
 ---------------------------------------------------------------------

 SCF Done:  E(RmPW1PW91) =  -1064.37587146     A.U. after   13 cycles

      1  C    Isotropic =   106.0895   Anisotropy =    43.2424

      2  C    Isotropic =   138.4204   Anisotropy =    23.7405

      3  C    Isotropic =   104.5649   Anisotropy =    59.5105

      4  C    Isotropic =   140.6664   Anisotropy =    25.9752

      5  C    Isotropic =     6.3844   Anisotropy =   103.1279

      6  H    Isotropic =    28.2873   Anisotropy =     3.0254

      7  H    Isotropic =    30.2109   Anisotropy =     5.4497

      8  H    Isotropic =    29.5102   Anisotropy =     4.5688

      9  H    Isotropic =    29.2558   Anisotropy =     4.8386

     10  O    Isotropic =    89.3202   Anisotropy =   189.9174

     11  O    Isotropic =  -116.4733   Anisotropy =   581.8501

     12  C    Isotropic =   158.1416   Anisotropy =    19.9404

     13  C    Isotropic =   175.5390   Anisotropy =    21.3046

     14  C    Isotropic =   175.8154   Anisotropy =     9.5588

     15  O    Isotropic =   243.0885   Anisotropy =    23.1908

     16  Si   Isotropic =   334.7717   Anisotropy =    51.6387

     17  C    Isotropic =   184.8282   Anisotropy =    10.5492

     18  C    Isotropic =   185.9273   Anisotropy =    13.4755

     19  C    Isotropic =   185.2554   Anisotropy =    11.6411

     20  H    Isotropic =    32.3686   Anisotropy =     9.6834

     21  H    Isotropic =    31.9751   Anisotropy =     8.8435

     22  H    Isotropic =    32.0706   Anisotropy =     8.4867

     23  H    Isotropic =    31.8549   Anisotropy =     7.3045

     24  H    Isotropic =    32.2023   Anisotropy =     7.0785

     25  H    Isotropic =    32.1997   Anisotropy =    10.4150

     26  H    Isotropic =    32.3615   Anisotropy =    10.2402

     27  H    Isotropic =    32.1474   Anisotropy =     6.9080

     28  H    Isotropic =    31.9786   Anisotropy =     7.9945

     29  H    Isotropic =    30.7942   Anisotropy =     7.1308

     30  H    Isotropic =    31.0718   Anisotropy =     8.6661

     31  H    Isotropic =    31.3897   Anisotropy =     8.3192

     32  H    Isotropic =    30.5073   Anisotropy =     5.3640

     33  H    Isotropic =    30.3159   Anisotropy =     5.6468

     34  H    Isotropic =    30.5986   Anisotropy =     8.0441

     35  H    Isotropic =    31.3151   Anisotropy =     9.2282

     36  H    Isotropic =    30.9676   Anisotropy =    11.3820

     37  C    Isotropic =   137.8292   Anisotropy =    18.8619

     38  C    Isotropic =    42.6777   Anisotropy =   181.6361

     39  C    Isotropic =    64.9732   Anisotropy =   139.4516

     40  H    Isotropic =    30.1441   Anisotropy =     6.4862

     41  H    Isotropic =    29.4379   Anisotropy =     3.6671

     42  H    Isotropic =    25.5834   Anisotropy =     7.5657

     43  H    Isotropic =    26.6923   Anisotropy =     7.0146

     44  H    Isotropic =    26.7814   Anisotropy =     7.3686

 The electronic state is 1-A.
 Alpha  occ. eigenvalues --  -66.26767 -19.26460 -19.21313 -19.19767 -10.37044
 Alpha  occ. eigenvalues --  -10.32447 -10.31032 -10.25995 -10.25264 -10.24179
 Alpha  occ. eigenvalues --  -10.24141 -10.24112 -10.23149 -10.22795 -10.22169
 Alpha  occ. eigenvalues --  -10.20435 -10.20401 -10.20375  -5.32618  -3.66466
 Alpha  occ. eigenvalues --   -3.66228  -3.66199  -1.13595  -1.04866  -1.04163
 Alpha  occ. eigenvalues --   -0.86113  -0.83346  -0.80508  -0.78164  -0.74004
 Alpha  occ. eigenvalues --   -0.72460  -0.72238  -0.70036  -0.69809  -0.66902
 Alpha  occ. eigenvalues --   -0.63518  -0.62100  -0.58813  -0.56902  -0.54012
 Alpha  occ. eigenvalues --   -0.51937  -0.51101  -0.49272  -0.48840  -0.47180
 Alpha  occ. eigenvalues --   -0.46181  -0.45149  -0.44867  -0.44128  -0.43686
 Alpha  occ. eigenvalues --   -0.42986  -0.42488  -0.42206  -0.41809  -0.41387
 Alpha  occ. eigenvalues --   -0.40548  -0.40472  -0.39515  -0.39470  -0.39135
 Alpha  occ. eigenvalues --   -0.38714  -0.38141  -0.36915  -0.36586  -0.36269
 Alpha  occ. eigenvalues --   -0.35901  -0.35345  -0.33419  -0.32207  -0.31261
 Alpha  occ. eigenvalues --   -0.30390  -0.28582  -0.28377  -0.27168
 Alpha virt. eigenvalues --    0.00225   0.01210   0.04031   0.04903   0.05759
 Alpha virt. eigenvalues --    0.06548   0.07574   0.07796   0.08587   0.08978
 Alpha virt. eigenvalues --    0.09361   0.10134   0.10497   0.10782   0.11598

 Mulliken charges:
               1
     1  C   -0.006506
     2  C   -0.364370
     3  C    0.234930
     4  C   -0.637920
     5  C    0.495276
     6  H    0.243433
     7  H    0.254083
     8  H    0.287805
     9  H    0.297617
    10  O   -0.316694
    11  O   -0.390815
    12  C   -0.462932
    13  C   -0.660290
    14  C   -0.702223
    15  O   -0.620000
    16  Si   1.387855
    17  C   -1.058697
    18  C   -1.038971
    19  C   -1.080407
    20  H    0.234533
    21  H    0.236802
    22  H    0.236479
    23  H    0.253308
    24  H    0.252826
    25  H    0.247299
    26  H    0.236467
    27  H    0.244186
    28  H    0.239138
    29  H    0.262185
    30  H    0.247936
    31  H    0.242648
    32  H    0.236533
    33  H    0.248569
    34  H    0.239661
    35  H    0.221617
    36  H    0.229821
    37  C   -0.512513
    38  C   -0.176177
    39  C   -0.454674
    40  H    0.240716
    41  H    0.261692
    42  H    0.223779
    43  H    0.226516
    44  H    0.219478
 Sum of Mulliken charges =   0.00000

 Dipole moment (field-independent basis, Debye):
    X=             -0.7646    Y=              1.1130    Z=             -4.6512  Tot=              4.8433
 Quadrupole moment (field-independent basis, Debye-Ang):
   XX=           -114.8334   YY=           -117.3654   ZZ=           -132.6918
   XY=             -5.0521   XZ=              9.4030   YZ=              7.3304

 Normal termination of Gaussian 09 at Thu Mar  8 13:16:07 2018.
