 Gaussian 09, Revision D.01,
 Gaussian 09:  EM64L-G09RevD.01 24-Apr-2013

 --------------------------------------------------------
 #mPW1PW91/6-311g(d) nmr=(giao) scrf=(solvent=chloroform)
 --------------------------------------------------------

 -------------
 P_ng_2ginp009
 -------------
 Symbolic Z-matrix:
 Charge =  0 Multiplicity = 1

                         Standard orientation:
 ---------------------------------------------------------------------
 Center     Atomic      Atomic             Coordinates (Angstroms)
 Number     Number       Type             X           Y           Z
 ---------------------------------------------------------------------
      1          6           0       -2.367439   -0.364716   -0.404324
      2          6           0       -0.910042   -0.790666   -0.667921
      3          6           0        0.077627    0.354911   -0.302385
      4          6           0       -0.177746    0.710803    1.163465
      5          6           0       -1.592014    1.130420    1.408753
      6          1           0       -2.716961    0.282130   -1.218321
      7          1           0       -0.686406   -1.635181   -0.003554
      8          1           0        0.007548   -0.138773    1.829763
      9          1           0        0.491801    1.510416    1.498489
     10          8           0       -2.551955    0.394080    0.814553
     11          8           0       -1.873262    2.025182    2.198890
     12          6           0       -3.320069   -1.572713   -0.325908
     13          6           0       -4.776695   -1.160550   -0.143555
     14          6           0       -0.728103   -1.317667   -2.100262
     15          8           0        1.426819   -0.069466   -0.594872
     16         14           0        2.500425   -0.933105    0.348017
     17          6           0        3.155375    0.088289    1.782003
     18          6           0        1.768027   -2.526938    1.014726
     19          6           0        3.988338   -1.410463   -0.719457
     20          1           0        2.531759   -3.106239    1.542478
     21          1           0        0.953426   -2.328130    1.716170
     22          1           0        1.378601   -3.143053    0.198887
     23          1           0        4.716645   -1.974891   -0.130067
     24          1           0        3.667300   -2.029114   -1.562465
     25          1           0        4.476932   -0.514021   -1.112017
     26          1           0        3.987130   -0.428719    2.270072
     27          1           0        3.516393    1.058500    1.428223
     28          1           0        2.381391    0.261892    2.534104
     29          1           0        0.318230   -1.555177   -2.314388
     30          1           0       -1.295473   -2.240380   -2.255151
     31          1           0       -1.070813   -0.591259   -2.843803
     32          1           0       -3.037803   -2.208016    0.522482
     33          1           0       -3.248706   -2.181335   -1.232478
     34          1           0       -4.928932   -0.629717    0.801201
     35          1           0       -5.104624   -0.511543   -0.961709
     36          1           0       -5.419411   -2.046717   -0.135294
     37          6           0       -0.135689    1.603957   -1.229877
     38          6           0        0.678263    2.821404   -0.859655
     39          6           0        1.739855    3.252351   -1.552885
     40          1           0       -1.184870    1.918120   -1.240158
     41          1           0        0.112188    1.327927   -2.263234
     42          1           0        0.357813    3.391302    0.010836
     43          1           0        2.280527    4.142535   -1.246486
     44          1           0        2.099417    2.724030   -2.430695
 ---------------------------------------------------------------------

 SCF Done:  E(RmPW1PW91) =  -1064.37642616     A.U. after   13 cycles

      1  C    Isotropic =   100.9889   Anisotropy =    48.1951

      2  C    Isotropic =   139.6856   Anisotropy =    25.6905

      3  C    Isotropic =   105.2681   Anisotropy =    52.6105

      4  C    Isotropic =   143.5958   Anisotropy =    28.8729

      5  C    Isotropic =     9.8151   Anisotropy =    93.3687

      6  H    Isotropic =    28.2145   Anisotropy =     2.0177

      7  H    Isotropic =    30.1031   Anisotropy =     5.4576

      8  H    Isotropic =    29.6547   Anisotropy =     4.7697

      9  H    Isotropic =    29.1808   Anisotropy =     4.0739

     10  O    Isotropic =   108.2145   Anisotropy =   198.0424

     11  O    Isotropic =  -128.8223   Anisotropy =   578.5168

     12  C    Isotropic =   155.9054   Anisotropy =    26.5946

     13  C    Isotropic =   174.9795   Anisotropy =    21.9403

     14  C    Isotropic =   176.0588   Anisotropy =    20.7584

     15  O    Isotropic =   245.5231   Anisotropy =    18.4525

     16  Si   Isotropic =   335.7680   Anisotropy =    52.3029

     17  C    Isotropic =   185.1619   Anisotropy =    11.3863

     18  C    Isotropic =   185.5544   Anisotropy =     7.5526

     19  C    Isotropic =   186.5864   Anisotropy =    13.1099

     20  H    Isotropic =    32.2310   Anisotropy =    10.6674

     21  H    Isotropic =    32.1553   Anisotropy =     6.0931

     22  H    Isotropic =    31.9994   Anisotropy =     6.8750

     23  H    Isotropic =    32.4006   Anisotropy =     9.7875

     24  H    Isotropic =    32.0353   Anisotropy =     8.3707

     25  H    Isotropic =    31.9768   Anisotropy =     8.7929

     26  H    Isotropic =    32.3701   Anisotropy =    10.4067

     27  H    Isotropic =    31.9566   Anisotropy =     7.8933

     28  H    Isotropic =    32.1361   Anisotropy =     6.2558

     29  H    Isotropic =    30.4519   Anisotropy =     7.2329

     30  H    Isotropic =    31.2532   Anisotropy =     9.3815

     31  H    Isotropic =    31.4699   Anisotropy =     8.6179

     32  H    Isotropic =    30.5453   Anisotropy =     5.0212

     33  H    Isotropic =    30.2012   Anisotropy =     5.6940

     34  H    Isotropic =    30.5242   Anisotropy =     7.9713

     35  H    Isotropic =    31.2084   Anisotropy =     9.1649

     36  H    Isotropic =    30.9912   Anisotropy =    11.2882

     37  C    Isotropic =   145.0789   Anisotropy =    18.5752

     38  C    Isotropic =    45.7769   Anisotropy =   177.3531

     39  C    Isotropic =    61.6993   Anisotropy =   144.0563

     40  H    Isotropic =    30.0441   Anisotropy =     5.2334

     41  H    Isotropic =    29.6073   Anisotropy =     5.5273

     42  H    Isotropic =    25.7851   Anisotropy =     6.0941

     43  H    Isotropic =    26.6206   Anisotropy =     6.4493

     44  H    Isotropic =    26.6605   Anisotropy =     7.4697

 The electronic state is 1-A.
 Alpha  occ. eigenvalues --  -66.26913 -19.26482 -19.21186 -19.20313 -10.37642
 Alpha  occ. eigenvalues --  -10.32275 -10.31038 -10.25550 -10.25444 -10.24283
 Alpha  occ. eigenvalues --  -10.24048 -10.23963 -10.22836 -10.22687 -10.22025
 Alpha  occ. eigenvalues --  -10.20837 -10.20552 -10.20421  -5.32748  -3.66597
 Alpha  occ. eigenvalues --   -3.66363  -3.66326  -1.13668  -1.05155  -1.04064
 Alpha  occ. eigenvalues --   -0.86127  -0.83604  -0.80682  -0.78143  -0.74141
 Alpha  occ. eigenvalues --   -0.72558  -0.72052  -0.70331  -0.69913  -0.66608
 Alpha  occ. eigenvalues --   -0.64161  -0.61970  -0.58681  -0.56410  -0.53844
 Alpha  occ. eigenvalues --   -0.53223  -0.50029  -0.49609  -0.48281  -0.47779
 Alpha  occ. eigenvalues --   -0.47017  -0.45839  -0.44905  -0.44212  -0.43247
 Alpha  occ. eigenvalues --   -0.42735  -0.42520  -0.42191  -0.41718  -0.41634
 Alpha  occ. eigenvalues --   -0.40878  -0.40363  -0.40060  -0.39627  -0.39034
 Alpha  occ. eigenvalues --   -0.38460  -0.37797  -0.36915  -0.36575  -0.35873
 Alpha  occ. eigenvalues --   -0.35744  -0.34426  -0.33650  -0.32340  -0.31551
 Alpha  occ. eigenvalues --   -0.30369  -0.29067  -0.28444  -0.27264
 Alpha virt. eigenvalues --   -0.00619   0.01038   0.04044   0.05528   0.06010
 Alpha virt. eigenvalues --    0.06412   0.07661   0.08119   0.08682   0.08797
 Alpha virt. eigenvalues --    0.09205   0.09924   0.10153   0.10479   0.11504

 Mulliken charges:
               1
     1  C   -0.025226
     2  C   -0.299909
     3  C    0.174480
     4  C   -0.643537
     5  C    0.474814
     6  H    0.248482
     7  H    0.262360
     8  H    0.281922
     9  H    0.290272
    10  O   -0.323024
    11  O   -0.381951
    12  C   -0.450446
    13  C   -0.660354
    14  C   -0.676760
    15  O   -0.619364
    16  Si   1.420654
    17  C   -1.060973
    18  C   -1.081013
    19  C   -1.042143
    20  H    0.246695
    21  H    0.244713
    22  H    0.245912
    23  H    0.235040
    24  H    0.236407
    25  H    0.239078
    26  H    0.237486
    27  H    0.244644
    28  H    0.241078
    29  H    0.261034
    30  H    0.240722
    31  H    0.232524
    32  H    0.231432
    33  H    0.244911
    34  H    0.238250
    35  H    0.222700
    36  H    0.228140
    37  C   -0.516367
    38  C   -0.173021
    39  C   -0.450542
    40  H    0.254004
    41  H    0.262205
    42  H    0.218624
    43  H    0.225137
    44  H    0.220908
 Sum of Mulliken charges =   0.00000

 Dipole moment (field-independent basis, Debye):
    X=              1.3310    Y=             -3.9375    Z=             -2.6647  Tot=              4.9372
 Quadrupole moment (field-independent basis, Debye-Ang):
   XX=           -122.0536   YY=           -122.0551   ZZ=           -124.0097
   XY=              8.1858   XZ=             11.3428   YZ=             -6.5851

 Normal termination of Gaussian 09 at Thu Mar  8 13:23:35 2018.
