 Gaussian 09, Revision D.01,
 Gaussian 09:  EM64L-G09RevD.01 24-Apr-2013

 --------------------------------------------------------
 #mPW1PW91/6-311g(d) nmr=(giao) scrf=(solvent=chloroform)
 --------------------------------------------------------

 -------------
 P_ng_4ginp004
 -------------
 Symbolic Z-matrix:
 Charge =  0 Multiplicity = 1

                         Standard orientation:
 ---------------------------------------------------------------------
 Center     Atomic      Atomic             Coordinates (Angstroms)
 Number     Number       Type             X           Y           Z
 ---------------------------------------------------------------------
      1          6           0       -2.440519   -0.073327    0.045826
      2          6           0       -1.145557    0.260143    0.795363
      3          6           0        0.076757   -0.090180   -0.118092
      4          6           0       -0.019915   -1.580636   -0.468384
      5          6           0       -1.382439   -2.068353   -0.883938
      6          1           0       -2.514411    0.523181   -0.869695
      7          1           0       -1.116578    1.333412    1.020191
      8          1           0        0.652945   -1.807300   -1.302249
      9          1           0        0.305726   -2.201293    0.375042
     10          8           0       -2.466857   -1.454651   -0.369018
     11          8           0       -1.504481   -3.065567   -1.590709
     12          6           0       -3.743399    0.176449    0.822233
     13          6           0       -3.930641    1.621573    1.254415
     14          6           0       -1.076992   -0.446257    2.167143
     15          8           0        1.233990    0.187058    0.702690
     16         14           0        2.859881    0.028210    0.343846
     17          6           0        3.799468   -0.282335    1.957768
     18          6           0        3.281555   -1.381153   -0.815790
     19          6           0        3.546285    1.619097   -0.394493
     20          1           0        4.366680   -1.464507   -0.932198
     21          1           0        2.913481   -2.334500   -0.425991
     22          1           0        2.853809   -1.218561   -1.808949
     23          1           0        4.633684    1.553914   -0.496334
     24          1           0        3.123330    1.805676   -1.385203
     25          1           0        3.312136    2.472082    0.249040
     26          1           0        4.873059   -0.364777    1.765468
     27          1           0        3.632655    0.540911    2.658362
     28          1           0        3.455908   -1.210587    2.423326
     29          1           0       -1.862612   -0.078481    2.834765
     30          1           0       -1.197937   -1.530255    2.081395
     31          1           0       -0.127963   -0.250312    2.675689
     32          1           0       -3.811947   -0.489874    1.690011
     33          1           0       -4.588092   -0.110704    0.181948
     34          1           0       -4.917357    1.752024    1.710289
     35          1           0       -3.182735    1.922024    1.993603
     36          1           0       -3.862125    2.299126    0.397478
     37          6           0        0.091694    0.759257   -1.436441
     38          6           0       -0.023990    2.248325   -1.231340
     39          6           0       -0.941368    3.021876   -1.825728
     40          1           0       -0.701045    0.418250   -2.113738
     41          1           0        1.026091    0.582291   -1.981269
     42          1           0        0.694089    2.712078   -0.557312
     43          1           0       -0.968638    4.091585   -1.638241
     44          1           0       -1.677337    2.618064   -2.514211
 ---------------------------------------------------------------------

 SCF Done:  E(RmPW1PW91) =  -1064.37703593     A.U. after   13 cycles

      1  C    Isotropic =   107.7427   Anisotropy =    60.0861

      2  C    Isotropic =   148.2041   Anisotropy =    21.1726

      3  C    Isotropic =   105.3103   Anisotropy =    56.8015

      4  C    Isotropic =   143.2354   Anisotropy =    37.2859

      5  C    Isotropic =     8.8598   Anisotropy =    95.7237

      6  H    Isotropic =    27.9750   Anisotropy =     2.7333

      7  H    Isotropic =    29.9025   Anisotropy =     4.2351

      8  H    Isotropic =    29.3834   Anisotropy =     4.5699

      9  H    Isotropic =    29.4391   Anisotropy =     4.1893

     10  O    Isotropic =   111.7209   Anisotropy =   186.7013

     11  O    Isotropic =  -130.1417   Anisotropy =   594.7559

     12  C    Isotropic =   159.8875   Anisotropy =    26.2470

     13  C    Isotropic =   178.4923   Anisotropy =    14.7139

     14  C    Isotropic =   179.8795   Anisotropy =    15.4125

     15  O    Isotropic =   244.7927   Anisotropy =    17.5330

     16  Si   Isotropic =   333.8645   Anisotropy =    55.0477

     17  C    Isotropic =   185.8752   Anisotropy =    12.9541

     18  C    Isotropic =   184.6707   Anisotropy =    10.0954

     19  C    Isotropic =   184.6533   Anisotropy =    10.6840

     20  H    Isotropic =    32.1280   Anisotropy =    10.5293

     21  H    Isotropic =    31.8744   Anisotropy =     6.8917

     22  H    Isotropic =    31.9418   Anisotropy =     6.1502

     23  H    Isotropic =    32.2734   Anisotropy =    10.2056

     24  H    Isotropic =    32.0310   Anisotropy =     6.3500

     25  H    Isotropic =    31.9052   Anisotropy =     7.9379

     26  H    Isotropic =    32.3508   Anisotropy =     9.8370

     27  H    Isotropic =    31.9282   Anisotropy =     8.5297

     28  H    Isotropic =    32.0492   Anisotropy =     8.0570

     29  H    Isotropic =    31.1940   Anisotropy =     9.6570

     30  H    Isotropic =    31.4355   Anisotropy =     7.8460

     31  H    Isotropic =    30.6561   Anisotropy =     8.3773

     32  H    Isotropic =    30.3405   Anisotropy =     6.0757

     33  H    Isotropic =    30.1921   Anisotropy =     9.2559

     34  H    Isotropic =    31.0081   Anisotropy =    11.9983

     35  H    Isotropic =    31.3141   Anisotropy =     5.9138

     36  H    Isotropic =    31.3925   Anisotropy =     8.2543

     37  C    Isotropic =   141.0743   Anisotropy =    35.4771

     38  C    Isotropic =    45.3810   Anisotropy =   179.8108

     39  C    Isotropic =    63.9916   Anisotropy =   142.9237

     40  H    Isotropic =    29.6710   Anisotropy =     5.2243

     41  H    Isotropic =    29.4882   Anisotropy =     4.6760

     42  H    Isotropic =    25.7687   Anisotropy =     6.5855

     43  H    Isotropic =    26.6769   Anisotropy =     6.8952

     44  H    Isotropic =    26.7524   Anisotropy =     7.1665

 The electronic state is 1-A.
 Alpha  occ. eigenvalues --  -66.27041 -19.26250 -19.21392 -19.20032 -10.37425
 Alpha  occ. eigenvalues --  -10.32294 -10.30480 -10.25223 -10.25142 -10.25108
 Alpha  occ. eigenvalues --  -10.24641 -10.23703 -10.23251 -10.22565 -10.22259
 Alpha  occ. eigenvalues --  -10.20919 -10.20543 -10.20531  -5.32869  -3.66715
 Alpha  occ. eigenvalues --   -3.66484  -3.66451  -1.13550  -1.04891  -1.04184
 Alpha  occ. eigenvalues --   -0.86035  -0.83287  -0.81127  -0.77487  -0.74027
 Alpha  occ. eigenvalues --   -0.73559  -0.71913  -0.70352  -0.69932  -0.67005
 Alpha  occ. eigenvalues --   -0.63379  -0.62134  -0.58909  -0.54952  -0.53317
 Alpha  occ. eigenvalues --   -0.53076  -0.51516  -0.51141  -0.48149  -0.47406
 Alpha  occ. eigenvalues --   -0.46757  -0.45458  -0.45113  -0.44616  -0.43776
 Alpha  occ. eigenvalues --   -0.42911  -0.42761  -0.41983  -0.41554  -0.40965
 Alpha  occ. eigenvalues --   -0.40525  -0.40298  -0.39715  -0.39414  -0.39269
 Alpha  occ. eigenvalues --   -0.38541  -0.37994  -0.37394  -0.37075  -0.36514
 Alpha  occ. eigenvalues --   -0.35278  -0.34448  -0.33380  -0.31866  -0.31205
 Alpha  occ. eigenvalues --   -0.30417  -0.29617  -0.28470  -0.27459
 Alpha virt. eigenvalues --   -0.00620   0.00449   0.03904   0.05328   0.06178
 Alpha virt. eigenvalues --    0.06317   0.06882   0.07952   0.08360   0.09132
 Alpha virt. eigenvalues --    0.09618   0.10221   0.10594   0.11198   0.11530

 Mulliken charges:
               1
     1  C   -0.033557
     2  C   -0.326032
     3  C    0.205886
     4  C   -0.628969
     5  C    0.476633
     6  H    0.255352
     7  H    0.265496
     8  H    0.278927
     9  H    0.298224
    10  O   -0.312942
    11  O   -0.384112
    12  C   -0.471285
    13  C   -0.669993
    14  C   -0.668953
    15  O   -0.623664
    16  Si   1.397239
    17  C   -1.038629
    18  C   -1.083021
    19  C   -1.061221
    20  H    0.249776
    21  H    0.251413
    22  H    0.248306
    23  H    0.238659
    24  H    0.243808
    25  H    0.241844
    26  H    0.234278
    27  H    0.237302
    28  H    0.235443
    29  H    0.241361
    30  H    0.228497
    31  H    0.260205
    32  H    0.240893
    33  H    0.239872
    34  H    0.236426
    35  H    0.231935
    36  H    0.231140
    37  C   -0.540927
    38  C   -0.176159
    39  C   -0.451251
    40  H    0.254438
    41  H    0.261997
    42  H    0.231697
    43  H    0.229030
    44  H    0.224640
 Sum of Mulliken charges =   0.00000

 Dipole moment (field-independent basis, Debye):
    X=              1.5917    Y=              4.1242    Z=              1.4702  Tot=              4.6588
 Quadrupole moment (field-independent basis, Debye-Ang):
   XX=           -114.9982   YY=           -132.0550   ZZ=           -122.0127
   XY=            -12.5258   XZ=             -5.6408   YZ=             -8.4001

 Normal termination of Gaussian 09 at Thu Mar  8 13:55:09 2018.
