 Gaussian 09, Revision D.01,
 Gaussian 09:  EM64L-G09RevD.01 24-Apr-2013

 --------------------------------------------------------
 #mPW1PW91/6-311g(d) nmr=(giao) scrf=(solvent=chloroform)
 --------------------------------------------------------

 -------------
 P_ng_2ginp016
 -------------
 Symbolic Z-matrix:
 Charge =  0 Multiplicity = 1

                         Standard orientation:
 ---------------------------------------------------------------------
 Center     Atomic      Atomic             Coordinates (Angstroms)
 Number     Number       Type             X           Y           Z
 ---------------------------------------------------------------------
      1          6           0       -2.248584   -0.134373   -0.396613
      2          6           0       -0.772921   -0.006175   -0.802368
      3          6           0        0.064987    0.462687    0.420184
      4          6           0       -0.112977   -0.604320    1.511311
      5          6           0       -1.548937   -0.882401    1.848859
      6          1           0       -2.667434    0.862536   -0.213291
      7          1           0       -0.408124   -1.009752   -1.049130
      8          1           0        0.316130   -1.567237    1.215637
      9          1           0        0.408344   -0.295939    2.426112
     10          8           0       -2.436478   -0.874666    0.833057
     11          8           0       -1.886030   -1.215411    2.980742
     12          6           0       -3.155795   -0.790298   -1.453911
     13          6           0       -2.770970   -2.220099   -1.813141
     14          6           0       -0.594413    0.817520   -2.082576
     15          8           0        1.444620    0.683128    0.054581
     16         14           0        2.680432   -0.418797   -0.169137
     17          6           0        2.187891   -1.897516   -1.211900
     18          6           0        4.101163    0.446705   -1.070659
     19          6           0        3.359215   -1.030206    1.474172
     20          1           0        4.935625   -0.244096   -1.221860
     21          1           0        3.766157    0.807963   -2.047261
     22          1           0        4.456913    1.300801   -0.487247
     23          1           0        4.256896   -1.635161    1.314784
     24          1           0        3.625324   -0.185283    2.116084
     25          1           0        2.626882   -1.646130    2.002554
     26          1           0        3.058195   -2.530916   -1.409274
     27          1           0        1.437315   -2.510316   -0.705501
     28          1           0        1.780241   -1.574751   -2.174376
     29          1           0        0.452330    1.076122   -2.264723
     30          1           0       -0.931359    0.243717   -2.953031
     31          1           0       -1.181803    1.738772   -2.065018
     32          1           0       -3.183900   -0.182023   -2.364412
     33          1           0       -4.180422   -0.815893   -1.061012
     34          1           0       -3.518322   -2.648323   -2.489150
     35          1           0       -1.805294   -2.259285   -2.325136
     36          1           0       -2.719011   -2.856437   -0.924504
     37          6           0       -0.386659    1.832169    1.047896
     38          6           0       -0.310157    3.038084    0.150290
     39          6           0       -1.323907    3.887490   -0.060767
     40          1           0        0.280609    2.050031    1.894320
     41          1           0       -1.393921    1.755053    1.473430
     42          1           0        0.648718    3.226900   -0.330487
     43          1           0       -1.197347    4.748533   -0.710549
     44          1           0       -2.293298    3.754265    0.409246
 ---------------------------------------------------------------------

 SCF Done:  E(RmPW1PW91) =  -1064.37541219     A.U. after   13 cycles

      1  C    Isotropic =   105.0391   Anisotropy =    60.0807

      2  C    Isotropic =   145.4118   Anisotropy =    17.8561

      3  C    Isotropic =   105.1785   Anisotropy =    58.3062

      4  C    Isotropic =   138.4106   Anisotropy =    26.5135

      5  C    Isotropic =     8.7465   Anisotropy =    94.9477

      6  H    Isotropic =    27.7050   Anisotropy =     3.6491

      7  H    Isotropic =    29.8100   Anisotropy =     4.1376

      8  H    Isotropic =    29.5303   Anisotropy =     4.4151

      9  H    Isotropic =    29.3486   Anisotropy =     4.9574

     10  O    Isotropic =   104.1483   Anisotropy =   169.9216

     11  O    Isotropic =  -131.8128   Anisotropy =   584.1962

     12  C    Isotropic =   160.5337   Anisotropy =    22.1453

     13  C    Isotropic =   180.9867   Anisotropy =    11.4604

     14  C    Isotropic =   175.7718   Anisotropy =    12.8949

     15  O    Isotropic =   248.4030   Anisotropy =    21.4070

     16  Si   Isotropic =   335.0130   Anisotropy =    51.0940

     17  C    Isotropic =   185.4643   Anisotropy =     7.7563

     18  C    Isotropic =   186.4229   Anisotropy =    13.1590

     19  C    Isotropic =   184.4037   Anisotropy =    12.2485

     20  H    Isotropic =    32.3252   Anisotropy =     9.6663

     21  H    Isotropic =    31.9497   Anisotropy =     8.2413

     22  H    Isotropic =    31.9164   Anisotropy =     9.0321

     23  H    Isotropic =    32.2889   Anisotropy =    10.1524

     24  H    Isotropic =    31.9203   Anisotropy =     8.3808

     25  H    Isotropic =    32.0317   Anisotropy =     6.6757

     26  H    Isotropic =    32.1644   Anisotropy =    10.6801

     27  H    Isotropic =    32.0768   Anisotropy =     6.2809

     28  H    Isotropic =    31.9227   Anisotropy =     6.6035

     29  H    Isotropic =    30.5917   Anisotropy =     6.1110

     30  H    Isotropic =    31.4385   Anisotropy =     9.0329

     31  H    Isotropic =    31.0541   Anisotropy =     8.9882

     32  H    Isotropic =    30.2973   Anisotropy =     6.8222

     33  H    Isotropic =    30.0572   Anisotropy =     9.7590

     34  H    Isotropic =    31.2071   Anisotropy =    11.9665

     35  H    Isotropic =    31.2847   Anisotropy =     6.6618

     36  H    Isotropic =    31.0841   Anisotropy =     7.4003

     37  C    Isotropic =   137.9798   Anisotropy =    34.0129

     38  C    Isotropic =    40.4434   Anisotropy =   188.1991

     39  C    Isotropic =    67.1721   Anisotropy =   138.4772

     40  H    Isotropic =    29.5038   Anisotropy =     5.4003

     41  H    Isotropic =    29.6701   Anisotropy =     5.9253

     42  H    Isotropic =    25.3945   Anisotropy =     7.8496

     43  H    Isotropic =    26.9219   Anisotropy =     7.0476

     44  H    Isotropic =    26.8222   Anisotropy =     7.2191

 The electronic state is 1-A.
 Alpha  occ. eigenvalues --  -66.27089 -19.26461 -19.21458 -19.20174 -10.37597
 Alpha  occ. eigenvalues --  -10.32320 -10.30902 -10.25496 -10.25495 -10.24429
 Alpha  occ. eigenvalues --  -10.24126 -10.23947 -10.22638 -10.22521 -10.22238
 Alpha  occ. eigenvalues --  -10.20982 -10.20653 -10.20549  -5.32923  -3.66774
 Alpha  occ. eigenvalues --   -3.66536  -3.66501  -1.13591  -1.05040  -1.04267
 Alpha  occ. eigenvalues --   -0.86189  -0.83415  -0.80826  -0.77928  -0.74271
 Alpha  occ. eigenvalues --   -0.72998  -0.71901  -0.70449  -0.70018  -0.67031
 Alpha  occ. eigenvalues --   -0.63204  -0.62616  -0.58590  -0.56382  -0.53483
 Alpha  occ. eigenvalues --   -0.53218  -0.50865  -0.49432  -0.48313  -0.47520
 Alpha  occ. eigenvalues --   -0.46549  -0.45510  -0.44620  -0.44464  -0.43677
 Alpha  occ. eigenvalues --   -0.43050  -0.42825  -0.42117  -0.41790  -0.41125
 Alpha  occ. eigenvalues --   -0.40995  -0.40858  -0.40385  -0.39750  -0.39015
 Alpha  occ. eigenvalues --   -0.37999  -0.37772  -0.37454  -0.36695  -0.36453
 Alpha  occ. eigenvalues --   -0.35671  -0.34546  -0.33169  -0.32568  -0.31417
 Alpha  occ. eigenvalues --   -0.30466  -0.29340  -0.28498  -0.26846
 Alpha virt. eigenvalues --   -0.00546   0.01000   0.03686   0.05251   0.05707
 Alpha virt. eigenvalues --    0.06249   0.07685   0.08294   0.08621   0.08644
 Alpha virt. eigenvalues --    0.09705   0.10188   0.10420   0.10708   0.11384

 Mulliken charges:
               1
     1  C   -0.037408
     2  C   -0.296113
     3  C    0.159310
     4  C   -0.628936
     5  C    0.470026
     6  H    0.257720
     7  H    0.274724
     8  H    0.280406
     9  H    0.280573
    10  O   -0.318811
    11  O   -0.384095
    12  C   -0.453725
    13  C   -0.677627
    14  C   -0.694861
    15  O   -0.624965
    16  Si   1.410889
    17  C   -1.088572
    18  C   -1.041804
    19  C   -1.055808
    20  H    0.236101
    21  H    0.237598
    22  H    0.238667
    23  H    0.236834
    24  H    0.242559
    25  H    0.243712
    26  H    0.249492
    27  H    0.247202
    28  H    0.251397
    29  H    0.256889
    30  H    0.238643
    31  H    0.250439
    32  H    0.245990
    33  H    0.241743
    34  H    0.234471
    35  H    0.227558
    36  H    0.236128
    37  C   -0.489031
    38  C   -0.170156
    39  C   -0.462916
    40  H    0.259132
    41  H    0.245672
    42  H    0.224802
    43  H    0.224903
    44  H    0.221247
 Sum of Mulliken charges =   0.00000

 Dipole moment (field-independent basis, Debye):
    X=              1.9164    Y=              0.6629    Z=             -4.4685  Tot=              4.9071
 Quadrupole moment (field-independent basis, Debye-Ang):
   XX=           -119.8053   YY=           -120.7459   ZZ=           -130.1301
   XY=             -7.9641   XZ=             11.8279   YZ=              5.8015

 Normal termination of Gaussian 09 at Thu Mar  8 13:19:36 2018.
