 Gaussian 09, Revision D.01,
 Gaussian 09:  EM64L-G09RevD.01 24-Apr-2013

 --------------------------------------------------------
 #mPW1PW91/6-311g(d) nmr=(giao) scrf=(solvent=chloroform)
 --------------------------------------------------------

 -------------
 P_ng_2ginp014
 -------------
 Symbolic Z-matrix:
 Charge =  0 Multiplicity = 1

                         Standard orientation:
 ---------------------------------------------------------------------
 Center     Atomic      Atomic             Coordinates (Angstroms)
 Number     Number       Type             X           Y           Z
 ---------------------------------------------------------------------
      1          6           0       -2.308393    0.210912   -0.160035
      2          6           0       -0.973905   -0.141708   -0.834698
      3          6           0        0.144003    0.783409   -0.244355
      4          6           0       -0.100752    1.101046    1.249021
      5          6           0       -1.087662    0.202112    1.937569
      6          1           0       -2.522310    1.283189   -0.244136
      7          1           0       -0.738311   -1.172770   -0.549448
      8          1           0        0.840544    1.073805    1.809703
      9          1           0       -0.523534    2.104921    1.382788
     10          8           0       -2.207413   -0.104735    1.245264
     11          8           0       -0.938523   -0.164754    3.098139
     12          6           0       -3.540287   -0.539613   -0.693398
     13          6           0       -3.468415   -2.055569   -0.548567
     14          6           0       -1.038154   -0.131590   -2.366392
     15          8           0        1.467610    0.257897   -0.486754
     16         14           0        2.121872   -1.221428   -0.068589
     17          6           0        1.433094   -1.977462    1.496024
     18          6           0        1.887607   -2.458497   -1.472089
     19          6           0        3.984112   -1.009692    0.181122
     20          1           0        2.287363   -2.054441   -2.406719
     21          1           0        2.410958   -3.392803   -1.248440
     22          1           0        0.828667   -2.686934   -1.619891
     23          1           0        4.447878   -0.618371   -0.728952
     24          1           0        4.180163   -0.310462    0.999126
     25          1           0        4.449539   -1.969258    0.424121
     26          1           0        1.950799   -2.914494    1.724290
     27          1           0        1.569340   -1.307786    2.349513
     28          1           0        0.369210   -2.206314    1.393541
     29          1           0       -0.043381   -0.255431   -2.806138
     30          1           0       -1.652516   -0.957143   -2.739232
     31          1           0       -1.473763    0.797425   -2.747952
     32          1           0       -3.720995   -0.279036   -1.741878
     33          1           0       -4.419494   -0.200766   -0.130311
     34          1           0       -3.335419   -2.351264    0.496636
     35          1           0       -4.398747   -2.508148   -0.907021
     36          1           0       -2.647532   -2.480082   -1.132947
     37          6           0        0.171079    2.160532   -1.016112
     38          6           0        1.160211    3.169335   -0.478732
     39          6           0        0.838104    4.403621   -0.071524
     40          1           0       -0.832631    2.601807   -1.034101
     41          1           0        0.468190    1.990475   -2.058758
     42          1           0        2.202381    2.854311   -0.443342
     43          1           0        1.603256    5.081158    0.296475
     44          1           0       -0.183107    4.770138   -0.096875
 ---------------------------------------------------------------------

 SCF Done:  E(RmPW1PW91) =  -1064.37523387     A.U. after   13 cycles

      1  C    Isotropic =   108.6923   Anisotropy =    54.3928

      2  C    Isotropic =   142.9638   Anisotropy =    16.1576

      3  C    Isotropic =   104.3002   Anisotropy =    59.3057

      4  C    Isotropic =   140.6546   Anisotropy =    25.8992

      5  C    Isotropic =     6.3268   Anisotropy =   103.4386

      6  H    Isotropic =    27.9527   Anisotropy =     2.8278

      7  H    Isotropic =    30.0646   Anisotropy =     4.6424

      8  H    Isotropic =    29.5236   Anisotropy =     4.5859

      9  H    Isotropic =    29.2349   Anisotropy =     5.1155

     10  O    Isotropic =    91.6452   Anisotropy =   193.0630

     11  O    Isotropic =  -117.0768   Anisotropy =   582.6150

     12  C    Isotropic =   161.3333   Anisotropy =    20.7446

     13  C    Isotropic =   180.7465   Anisotropy =    12.0481

     14  C    Isotropic =   176.4438   Anisotropy =    10.9693

     15  O    Isotropic =   242.8510   Anisotropy =    22.8363

     16  Si   Isotropic =   334.2865   Anisotropy =    51.2138

     17  C    Isotropic =   185.3674   Anisotropy =    11.4993

     18  C    Isotropic =   184.8510   Anisotropy =    10.3337

     19  C    Isotropic =   186.1317   Anisotropy =    13.4208

     20  H    Isotropic =    31.9621   Anisotropy =     8.0324

     21  H    Isotropic =    32.3544   Anisotropy =    10.1934

     22  H    Isotropic =    32.1181   Anisotropy =     7.3077

     23  H    Isotropic =    31.9666   Anisotropy =     8.8764

     24  H    Isotropic =    32.0695   Anisotropy =     8.5697

     25  H    Isotropic =    32.3627   Anisotropy =     9.6685

     26  H    Isotropic =    32.1950   Anisotropy =    10.3529

     27  H    Isotropic =    31.8517   Anisotropy =     7.3769

     28  H    Isotropic =    32.1732   Anisotropy =     7.4565

     29  H    Isotropic =    30.7702   Anisotropy =     7.2322

     30  H    Isotropic =    31.1566   Anisotropy =     8.4595

     31  H    Isotropic =    31.3457   Anisotropy =     8.6284

     32  H    Isotropic =    30.3892   Anisotropy =     7.1817

     33  H    Isotropic =    30.1079   Anisotropy =     9.9382

     34  H    Isotropic =    30.7847   Anisotropy =     7.6707

     35  H    Isotropic =    31.1894   Anisotropy =    11.9574

     36  H    Isotropic =    31.2814   Anisotropy =     6.1630

     37  C    Isotropic =   137.8759   Anisotropy =    18.6392

     38  C    Isotropic =    42.5380   Anisotropy =   181.7089

     39  C    Isotropic =    64.8685   Anisotropy =   139.7775

     40  H    Isotropic =    30.1153   Anisotropy =     6.7400

     41  H    Isotropic =    29.4405   Anisotropy =     3.7821

     42  H    Isotropic =    25.5674   Anisotropy =     7.6719

     43  H    Isotropic =    26.6869   Anisotropy =     7.0442

     44  H    Isotropic =    26.7919   Anisotropy =     7.4305

 The electronic state is 1-A.
 Alpha  occ. eigenvalues --  -66.26784 -19.26422 -19.21332 -19.19761 -10.37023
 Alpha  occ. eigenvalues --  -10.32509 -10.31020 -10.26050 -10.25258 -10.24189
 Alpha  occ. eigenvalues --  -10.24148 -10.24147 -10.23226 -10.22800 -10.22251
 Alpha  occ. eigenvalues --  -10.20445 -10.20419 -10.20392  -5.32635  -3.66482
 Alpha  occ. eigenvalues --   -3.66245  -3.66216  -1.13578  -1.04851  -1.04173
 Alpha  occ. eigenvalues --   -0.86157  -0.83350  -0.80442  -0.77964  -0.74011
 Alpha  occ. eigenvalues --   -0.72850  -0.72210  -0.70048  -0.69827  -0.67361
 Alpha  occ. eigenvalues --   -0.63104  -0.62488  -0.58459  -0.56185  -0.54024
 Alpha  occ. eigenvalues --   -0.52934  -0.51164  -0.48940  -0.48738  -0.46834
 Alpha  occ. eigenvalues --   -0.46196  -0.45704  -0.44953  -0.44504  -0.43366
 Alpha  occ. eigenvalues --   -0.42953  -0.42557  -0.42237  -0.41906  -0.41093
 Alpha  occ. eigenvalues --   -0.40657  -0.40411  -0.39939  -0.39455  -0.38854
 Alpha  occ. eigenvalues --   -0.38512  -0.38143  -0.37564  -0.36612  -0.36226
 Alpha  occ. eigenvalues --   -0.35836  -0.35114  -0.33357  -0.32301  -0.31181
 Alpha  occ. eigenvalues --   -0.30400  -0.28620  -0.28385  -0.27183
 Alpha virt. eigenvalues --    0.00209   0.01207   0.03759   0.04879   0.05551
 Alpha virt. eigenvalues --    0.06482   0.07721   0.07939   0.08444   0.08896
 Alpha virt. eigenvalues --    0.09416   0.10328   0.10362   0.10764   0.11651

 Mulliken charges:
               1
     1  C   -0.002399
     2  C   -0.388281
     3  C    0.237547
     4  C   -0.636452
     5  C    0.494809
     6  H    0.247961
     7  H    0.261243
     8  H    0.287518
     9  H    0.297540
    10  O   -0.316695
    11  O   -0.390921
    12  C   -0.466628
    13  C   -0.672593
    14  C   -0.699488
    15  O   -0.619706
    16  Si   1.389479
    17  C   -1.082682
    18  C   -1.059973
    19  C   -1.039162
    20  H    0.239133
    21  H    0.236373
    22  H    0.245268
    23  H    0.236960
    24  H    0.236638
    25  H    0.234660
    26  H    0.247367
    27  H    0.253218
    28  H    0.255196
    29  H    0.262502
    30  H    0.248150
    31  H    0.243990
    32  H    0.245582
    33  H    0.242469
    34  H    0.242248
    35  H    0.233728
    36  H    0.226798
    37  C   -0.513429
    38  C   -0.176021
    39  C   -0.454446
    40  H    0.240800
    41  H    0.261660
    42  H    0.223842
    43  H    0.226517
    44  H    0.219676
 Sum of Mulliken charges =   0.00000

 Dipole moment (field-independent basis, Debye):
    X=             -0.7759    Y=              0.8656    Z=             -4.6865  Tot=              4.8285
 Quadrupole moment (field-independent basis, Debye-Ang):
   XX=           -114.9678   YY=           -115.0500   ZZ=           -134.5522
   XY=             -4.3352   XZ=             10.1334   YZ=              4.0865

 Normal termination of Gaussian 09 at Thu Mar  8 13:21:14 2018.
