 Gaussian 09, Revision D.01,
 Gaussian 09:  EM64L-G09RevD.01 24-Apr-2013

 --------------------------------------------------------
 #mPW1PW91/6-311g(d) nmr=(giao) scrf=(solvent=chloroform)
 --------------------------------------------------------

 -------------
 P_ng_3ginp005
 -------------
 Symbolic Z-matrix:
 Charge =  0 Multiplicity = 1

                         Standard orientation:
 ---------------------------------------------------------------------
 Center     Atomic      Atomic             Coordinates (Angstroms)
 Number     Number       Type             X           Y           Z
 ---------------------------------------------------------------------
      1          6           0       -2.113444   -0.844501   -0.734415
      2          6           0       -1.147686    0.273480   -1.162445
      3          6           0       -0.036305    0.514667   -0.083774
      4          6           0       -0.586896    0.213659    1.324674
      5          6           0       -2.084052    0.248101    1.430139
      6          1           0       -2.916880   -0.879951   -1.482026
      7          1           0       -1.773391    1.174656   -1.210065
      8          1           0       -0.276865   -0.773486    1.685987
      9          1           0       -0.185361    0.930123    2.051852
     10          8           0       -2.766985   -0.445108    0.490594
     11          8           0       -2.656856    0.803771    2.361459
     12          6           0       -1.539643   -2.263415   -0.612758
     13          6           0       -2.620535   -3.287774   -0.285207
     14          6           0       -0.608798    0.054595   -2.581677
     15          8           0        0.997750   -0.450546   -0.397190
     16         14           0        2.557066   -0.535898    0.209435
     17          6           0        3.707707    0.624182   -0.721325
     18          6           0        2.670189   -0.159090    2.042889
     19          6           0        3.205409   -2.293271   -0.044237
     20          1           0        2.354165    0.864635    2.260034
     21          1           0        2.043608   -0.844317    2.620999
     22          1           0        3.701537   -0.272013    2.391050
     23          1           0        4.230172   -2.381224    0.327962
     24          1           0        2.577347   -3.010635    0.491933
     25          1           0        3.197587   -2.551786   -1.107055
     26          1           0        4.744701    0.463267   -0.411714
     27          1           0        3.640029    0.446542   -1.798650
     28          1           0        3.455707    1.670354   -0.528815
     29          1           0       -0.004211    0.906563   -2.907409
     30          1           0        0.007319   -0.845438   -2.663730
     31          1           0       -1.436786   -0.047675   -3.291719
     32          1           0       -0.786194   -2.323816    0.176614
     33          1           0       -1.055899   -2.557074   -1.549982
     34          1           0       -2.186265   -4.291662   -0.240561
     35          1           0       -3.085664   -3.080059    0.683449
     36          1           0       -3.402689   -3.291193   -1.050962
     37          6           0        0.485808    1.987844   -0.195916
     38          6           0       -0.533367    3.074066    0.033171
     39          6           0       -0.872646    3.986326   -0.886746
     40          1           0        0.972623    2.124582   -1.170137
     41          1           0        1.279424    2.155984    0.541366
     42          1           0       -0.999134    3.130367    1.016313
     43          1           0       -1.605839    4.755380   -0.660196
     44          1           0       -0.433691    3.992297   -1.879770
 ---------------------------------------------------------------------

 SCF Done:  E(RmPW1PW91) =  -1064.37458454     A.U. after   13 cycles

      1  C    Isotropic =    99.9094   Anisotropy =    45.2069

      2  C    Isotropic =   143.5299   Anisotropy =     9.6245

      3  C    Isotropic =   104.8906   Anisotropy =    49.1760

      4  C    Isotropic =   139.1838   Anisotropy =    30.7344

      5  C    Isotropic =     7.7134   Anisotropy =   103.4141

      6  H    Isotropic =    27.8958   Anisotropy =     4.8306

      7  H    Isotropic =    29.8633   Anisotropy =     6.4301

      8  H    Isotropic =    29.2575   Anisotropy =     2.7645

      9  H    Isotropic =    29.1199   Anisotropy =     4.7398

     10  O    Isotropic =    91.2660   Anisotropy =   212.5372

     11  O    Isotropic =  -119.3963   Anisotropy =   582.5901

     12  C    Isotropic =   161.6917   Anisotropy =     9.5548

     13  C    Isotropic =   174.3760   Anisotropy =    23.6999

     14  C    Isotropic =   175.8116   Anisotropy =    18.2397

     15  O    Isotropic =   232.3303   Anisotropy =    54.3234

     16  Si   Isotropic =   334.1577   Anisotropy =    52.7832

     17  C    Isotropic =   184.5249   Anisotropy =    12.3000

     18  C    Isotropic =   185.4841   Anisotropy =     6.2954

     19  C    Isotropic =   186.2798   Anisotropy =    12.5218

     20  H    Isotropic =    31.9541   Anisotropy =     6.5760

     21  H    Isotropic =    31.9244   Anisotropy =     6.8883

     22  H    Isotropic =    32.1446   Anisotropy =    10.5997

     23  H    Isotropic =    32.3416   Anisotropy =     9.9530

     24  H    Isotropic =    32.0885   Anisotropy =     8.0519

     25  H    Isotropic =    31.9512   Anisotropy =     8.3683

     26  H    Isotropic =    32.3404   Anisotropy =    10.3349

     27  H    Isotropic =    31.9495   Anisotropy =     7.8296

     28  H    Isotropic =    32.0337   Anisotropy =     6.4005

     29  H    Isotropic =    31.0081   Anisotropy =     8.3881

     30  H    Isotropic =    30.8443   Anisotropy =     5.8504

     31  H    Isotropic =    31.4694   Anisotropy =    10.9622

     32  H    Isotropic =    30.0898   Anisotropy =     8.8095

     33  H    Isotropic =    30.3742   Anisotropy =     4.9445

     34  H    Isotropic =    30.9430   Anisotropy =    10.6472

     35  H    Isotropic =    30.7309   Anisotropy =     7.9693

     36  H    Isotropic =    31.2799   Anisotropy =    10.2106

     37  C    Isotropic =   137.9602   Anisotropy =    28.4283

     38  C    Isotropic =    45.2318   Anisotropy =   176.7759

     39  C    Isotropic =    62.0342   Anisotropy =   144.8687

     40  H    Isotropic =    29.4051   Anisotropy =     4.0509

     41  H    Isotropic =    29.6530   Anisotropy =     5.2079

     42  H    Isotropic =    25.9859   Anisotropy =     6.4348

     43  H    Isotropic =    26.7318   Anisotropy =     6.8469

     44  H    Isotropic =    26.6744   Anisotropy =     7.4841

 The electronic state is 1-A.
 Alpha  occ. eigenvalues --  -66.26959 -19.26058 -19.21076 -19.19897 -10.37121
 Alpha  occ. eigenvalues --  -10.32351 -10.30201 -10.25183 -10.24982 -10.24833
 Alpha  occ. eigenvalues --  -10.24736 -10.23295 -10.23290 -10.22504 -10.21857
 Alpha  occ. eigenvalues --  -10.20893 -10.20647 -10.20479  -5.32794  -3.66640
 Alpha  occ. eigenvalues --   -3.66409  -3.66374  -1.13260  -1.04833  -1.03925
 Alpha  occ. eigenvalues --   -0.85690  -0.83041  -0.80423  -0.78335  -0.73935
 Alpha  occ. eigenvalues --   -0.73072  -0.71877  -0.70356  -0.69981  -0.66410
 Alpha  occ. eigenvalues --   -0.63919  -0.62272  -0.58143  -0.54567  -0.54432
 Alpha  occ. eigenvalues --   -0.52278  -0.51089  -0.49404  -0.48929  -0.46629
 Alpha  occ. eigenvalues --   -0.46556  -0.45576  -0.44542  -0.44097  -0.43403
 Alpha  occ. eigenvalues --   -0.43355  -0.42560  -0.42148  -0.41829  -0.41355
 Alpha  occ. eigenvalues --   -0.40802  -0.40359  -0.40155  -0.39678  -0.39234
 Alpha  occ. eigenvalues --   -0.38179  -0.37871  -0.36936  -0.36848  -0.35637
 Alpha  occ. eigenvalues --   -0.35167  -0.34774  -0.33557  -0.31844  -0.30805
 Alpha  occ. eigenvalues --   -0.30227  -0.29735  -0.28314  -0.27097
 Alpha virt. eigenvalues --   -0.00772   0.01209   0.03860   0.05410   0.06198
 Alpha virt. eigenvalues --    0.06302   0.06808   0.08221   0.08431   0.09118
 Alpha virt. eigenvalues --    0.09460   0.09932   0.10434   0.10739   0.11692

 Mulliken charges:
               1
     1  C   -0.033210
     2  C   -0.337510
     3  C    0.243849
     4  C   -0.674612
     5  C    0.500116
     6  H    0.246947
     7  H    0.268712
     8  H    0.301232
     9  H    0.275897
    10  O   -0.317430
    11  O   -0.387673
    12  C   -0.447150
    13  C   -0.658939
    14  C   -0.659357
    15  O   -0.620847
    16  Si   1.417900
    17  C   -1.058618
    18  C   -1.076383
    19  C   -1.040408
    20  H    0.249343
    21  H    0.246968
    22  H    0.246870
    23  H    0.235701
    24  H    0.236720
    25  H    0.237317
    26  H    0.235459
    27  H    0.239792
    28  H    0.241994
    29  H    0.235545
    30  H    0.249733
    31  H    0.230568
    32  H    0.245611
    33  H    0.240677
    34  H    0.226638
    35  H    0.232687
    36  H    0.221167
    37  C   -0.557659
    38  C   -0.194250
    39  C   -0.445512
    40  H    0.264568
    41  H    0.255695
    42  H    0.225710
    43  H    0.231188
    44  H    0.224955
 Sum of Mulliken charges =   0.00000

 Dipole moment (field-independent basis, Debye):
    X=              3.9895    Y=             -0.6727    Z=             -3.0934  Tot=              5.0929
 Quadrupole moment (field-independent basis, Debye-Ang):
   XX=           -130.1386   YY=           -116.3135   ZZ=           -123.0087
   XY=              2.6345   XZ=             14.1508   YZ=             -4.0615

 Normal termination of Gaussian 09 at Thu Mar  8 13:23:05 2018.
