 Gaussian 09, Revision D.01,
 Gaussian 09:  EM64L-G09RevD.01 24-Apr-2013

 --------------------------------------------------------
 #mPW1PW91/6-311g(d) nmr=(giao) scrf=(solvent=chloroform)
 --------------------------------------------------------

 --------------------
 P_ng_correct1ginp002
 --------------------
 Symbolic Z-matrix:
 Charge =  0 Multiplicity = 1

                         Standard orientation:
 ---------------------------------------------------------------------
 Center     Atomic      Atomic             Coordinates (Angstroms)
 Number     Number       Type             X           Y           Z
 ---------------------------------------------------------------------
      1          6           0        2.357444   -0.438875    0.492297
      2          6           0        0.883928   -0.808475    0.739256
      3          6           0       -0.043607    0.399732    0.418285
      4          6           0        0.235914    0.810902   -1.031262
      5          6           0        1.678604    1.133076   -1.275596
      6          1           0        2.705236    0.224832    1.293408
      7          1           0        0.609589   -1.605190    0.040035
      8          1           0       -0.016090    0.011941   -1.736964
      9          1           0       -0.373391    1.673954   -1.321323
     10          8           0        2.582023    0.285612   -0.738555
     11          8           0        2.025088    2.034931   -2.030908
     12          6           0        3.328295   -1.635015    0.486603
     13          6           0        3.052986   -2.664864   -0.601978
     14          6           0        0.677435   -1.385293    2.146891
     15          8           0       -1.416312    0.036311    0.689050
     16         14           0       -2.515152   -0.760593   -0.285771
     17          6           0       -3.131310    0.337518   -1.680421
     18          6           0       -1.839236   -2.352813   -1.011821
     19          6           0       -4.021023   -1.224608    0.762256
     20          1           0       -1.016736   -2.157630   -1.705085
     21          1           0       -1.474455   -3.013922   -0.220156
     22          1           0       -2.622353   -2.883512   -1.561865
     23          1           0       -4.766945   -1.741965    0.152060
     24          1           0       -3.723324   -1.884042    1.582611
     25          1           0       -4.479481   -0.326703    1.186517
     26          1           0       -3.472315    1.300007   -1.287814
     27          1           0       -2.345594    0.525028   -2.416833
     28          1           0       -3.970315   -0.137525   -2.197802
     29          1           0        1.203183   -2.338916    2.258249
     30          1           0        1.053705   -0.707956    2.919894
     31          1           0       -0.378791   -1.582847    2.352633
     32          1           0        3.332800   -2.131261    1.462758
     33          1           0        4.344362   -1.252322    0.324631
     34          1           0        3.849199   -3.416459   -0.613334
     35          1           0        2.109948   -3.190656   -0.427837
     36          1           0        3.015175   -2.201413   -1.592452
     37          6           0        0.229876    1.602286    1.388334
     38          6           0       -0.600561    2.829144    1.101175
     39          6           0       -0.095253    4.012656    0.731231
     40          1           0        1.288911    1.880569    1.385306
     41          1           0       -0.012811    1.303928    2.416104
     42          1           0       -1.678129    2.725554    1.218231
     43          1           0       -0.748150    4.859778    0.542504
     44          1           0        0.971538    4.167978    0.599112
 ---------------------------------------------------------------------

 SCF Done:  E(RmPW1PW91) =  -1064.37727332     A.U. after   13 cycles

      1  C    Isotropic =   104.7154   Anisotropy =    59.1305

      2  C    Isotropic =   145.8857   Anisotropy =    19.4001

      3  C    Isotropic =   104.6361   Anisotropy =    56.9277

      4  C    Isotropic =   143.3684   Anisotropy =    27.7882

      5  C    Isotropic =     8.7693   Anisotropy =    95.3955

      6  H    Isotropic =    27.9098   Anisotropy =     2.5869

      7  H    Isotropic =    29.8724   Anisotropy =     4.3052

      8  H    Isotropic =    29.7424   Anisotropy =     4.6634

      9  H    Isotropic =    29.1120   Anisotropy =     3.5026

     10  O    Isotropic =   106.4398   Anisotropy =   177.2352

     11  O    Isotropic =  -135.7617   Anisotropy =   589.2742

     12  C    Isotropic =   160.2245   Anisotropy =    22.4421

     13  C    Isotropic =   180.8417   Anisotropy =    11.1248

     14  C    Isotropic =   177.0296   Anisotropy =    19.1023

     15  O    Isotropic =   246.7054   Anisotropy =    18.3050

     16  Si   Isotropic =   335.4840   Anisotropy =    51.7663

     17  C    Isotropic =   185.0387   Anisotropy =    11.2465

     18  C    Isotropic =   185.4298   Anisotropy =     7.6644

     19  C    Isotropic =   186.4309   Anisotropy =    13.2613

     20  H    Isotropic =    32.0860   Anisotropy =     6.2186

     21  H    Isotropic =    31.9485   Anisotropy =     6.7953

     22  H    Isotropic =    32.1839   Anisotropy =    10.6651

     23  H    Isotropic =    32.3543   Anisotropy =     9.6947

     24  H    Isotropic =    31.9964   Anisotropy =     8.3871

     25  H    Isotropic =    31.9483   Anisotropy =     9.0130

     26  H    Isotropic =    31.9359   Anisotropy =     8.1980

     27  H    Isotropic =    32.0932   Anisotropy =     6.2210

     28  H    Isotropic =    32.3208   Anisotropy =    10.3424

     29  H    Isotropic =    31.3172   Anisotropy =     9.3516

     30  H    Isotropic =    31.5151   Anisotropy =     9.0114

     31  H    Isotropic =    30.5123   Anisotropy =     7.4895

     32  H    Isotropic =    30.3037   Anisotropy =     7.2543

     33  H    Isotropic =    30.0664   Anisotropy =     9.8979

     34  H    Isotropic =    31.1803   Anisotropy =    11.9203

     35  H    Isotropic =    31.2266   Anisotropy =     6.7052

     36  H    Isotropic =    31.1066   Anisotropy =     7.1744

     37  C    Isotropic =   144.2423   Anisotropy =    18.0366

     38  C    Isotropic =    44.4084   Anisotropy =   179.0942

     39  C    Isotropic =    63.0446   Anisotropy =   142.8396

     40  H    Isotropic =    30.1450   Anisotropy =     6.4027

     41  H    Isotropic =    29.4524   Anisotropy =     4.4123

     42  H    Isotropic =    25.6717   Anisotropy =     6.9837

     43  H    Isotropic =    26.6608   Anisotropy =     6.9165

     44  H    Isotropic =    26.7871   Anisotropy =     7.4487

 The electronic state is 1-A.
 Alpha  occ. eigenvalues --  -66.27032 -19.26329 -19.21387 -19.20257 -10.37515
 Alpha  occ. eigenvalues --  -10.32273 -10.30927 -10.25483 -10.25267 -10.24257
 Alpha  occ. eigenvalues --  -10.24007 -10.23975 -10.22874 -10.22656 -10.22258
 Alpha  occ. eigenvalues --  -10.20931 -10.20648 -10.20522  -5.32867  -3.66717
 Alpha  occ. eigenvalues --   -3.66482  -3.66446  -1.13547  -1.05051  -1.04190
 Alpha  occ. eigenvalues --   -0.86138  -0.83532  -0.80573  -0.77950  -0.74233
 Alpha  occ. eigenvalues --   -0.72819  -0.72114  -0.70424  -0.70003  -0.67000
 Alpha  occ. eigenvalues --   -0.63193  -0.62531  -0.58601  -0.55962  -0.53882
 Alpha  occ. eigenvalues --   -0.52786  -0.50718  -0.49644  -0.48686  -0.47706
 Alpha  occ. eigenvalues --   -0.46356  -0.45344  -0.44746  -0.44453  -0.43580
 Alpha  occ. eigenvalues --   -0.43179  -0.42694  -0.42474  -0.41803  -0.41301
 Alpha  occ. eigenvalues --   -0.40850  -0.40512  -0.39932  -0.39690  -0.38939
 Alpha  occ. eigenvalues --   -0.38298  -0.37745  -0.37208  -0.36831  -0.36155
 Alpha  occ. eigenvalues --   -0.35835  -0.34330  -0.33632  -0.32407  -0.31360
 Alpha  occ. eigenvalues --   -0.30390  -0.29139  -0.28518  -0.27171
 Alpha virt. eigenvalues --   -0.00661   0.01210   0.03742   0.05500   0.05664
 Alpha virt. eigenvalues --    0.06468   0.07646   0.07960   0.08365   0.08749
 Alpha virt. eigenvalues --    0.09728   0.10296   0.10339   0.11024   0.11202

 Mulliken charges:
               1
     1  C   -0.036358
     2  C   -0.319228
     3  C    0.163955
     4  C   -0.613385
     5  C    0.468353
     6  H    0.252925
     7  H    0.279478
     8  H    0.279641
     9  H    0.288640
    10  O   -0.320997
    11  O   -0.378804
    12  C   -0.451408
    13  C   -0.678788
    14  C   -0.677759
    15  O   -0.628167
    16  Si   1.416399
    17  C   -1.059694
    18  C   -1.087119
    19  C   -1.041518
    20  H    0.247630
    21  H    0.246912
    22  H    0.248109
    23  H    0.235835
    24  H    0.237517
    25  H    0.238158
    26  H    0.243563
    27  H    0.243407
    28  H    0.238015
    29  H    0.242292
    30  H    0.233171
    31  H    0.260044
    32  H    0.244033
    33  H    0.242135
    34  H    0.234475
    35  H    0.227803
    36  H    0.236090
    37  C   -0.504494
    38  C   -0.188284
    39  C   -0.447803
    40  H    0.250232
    41  H    0.263415
    42  H    0.222346
    43  H    0.225494
    44  H    0.223739
 Sum of Mulliken charges =   0.00000

 Dipole moment (field-independent basis, Debye):
    X=             -1.6973    Y=             -3.9584    Z=              2.6769  Tot=              5.0711
 Quadrupole moment (field-independent basis, Debye-Ang):
   XX=           -120.7815   YY=           -121.8121   ZZ=           -124.8708
   XY=             -7.8474   XZ=             12.2703   YZ=              5.7076

 Normal termination of Gaussian 09 at Thu Mar  8 13:19:32 2018.
