 Gaussian 09, Revision D.01,
 Gaussian 09:  EM64L-G09RevD.01 24-Apr-2013

 --------------------------------------------------------
 #mPW1PW91/6-311g(d) nmr=(giao) scrf=(solvent=chloroform)
 --------------------------------------------------------

 -------------
 P_ng_2ginp010
 -------------
 Symbolic Z-matrix:
 Charge =  0 Multiplicity = 1

                         Standard orientation:
 ---------------------------------------------------------------------
 Center     Atomic      Atomic             Coordinates (Angstroms)
 Number     Number       Type             X           Y           Z
 ---------------------------------------------------------------------
      1          6           0        2.305578   -0.421407   -0.361280
      2          6           0        0.884006   -0.958069   -0.576815
      3          6           0       -0.216936   -0.019202    0.012639
      4          6           0        0.051297    1.394771   -0.505744
      5          6           0        1.470033    1.862151   -0.397912
      6          1           0        2.605098   -0.520313    0.685457
      7          1           0        0.710467   -0.982193   -1.664471
      8          1           0       -0.231829    1.479545   -1.562882
      9          1           0       -0.567175    2.116411    0.038892
     10          8           0        2.429720    0.971339   -0.706345
     11          8           0        1.742560    3.036179   -0.166225
     12          6           0        3.353050   -1.178074   -1.202470
     13          6           0        4.770656   -0.662757   -0.976588
     14          6           0        0.737068   -2.412134   -0.098164
     15          8           0       -1.425056   -0.528554   -0.621614
     16         14           0       -3.022074   -0.112692   -0.346639
     17          6           0       -3.716494   -1.048887    1.131221
     18          6           0       -3.301463    1.720849   -0.081574
     19          6           0       -4.044619   -0.620465   -1.855253
     20          1           0       -4.371615    1.934792    0.000596
     21          1           0       -2.821561    2.067452    0.837705
     22          1           0       -2.906296    2.300694   -0.920744
     23          1           0       -5.100759   -0.382388   -1.699313
     24          1           0       -3.695674   -0.090214   -2.746045
     25          1           0       -3.952318   -1.695910   -2.032266
     26          1           0       -4.793704   -0.878529    1.218807
     27          1           0       -3.546979   -2.123489    1.016222
     28          1           0       -3.245256   -0.723621    2.062423
     29          1           0       -0.301405   -2.753401   -0.155165
     30          1           0        1.322833   -3.093336   -0.722970
     31          1           0        1.078007   -2.532580    0.934523
     32          1           0        3.117687   -1.071056   -2.268327
     33          1           0        3.340096   -2.246231   -0.964942
     34          1           0        4.874204    0.380217   -1.291218
     35          1           0        5.049052   -0.734767    0.079573
     36          1           0        5.483263   -1.258035   -1.556490
     37          6           0       -0.338477   -0.075632    1.572398
     38          6           0        0.829384    0.367619    2.408480
     39          6           0        1.466105   -0.422056    3.283326
     40          1           0       -0.649272   -1.086158    1.868932
     41          1           0       -1.171724    0.566202    1.884107
     42          1           0        1.137525    1.409986    2.337030
     43          1           0        2.285784   -0.036081    3.883239
     44          1           0        1.187679   -1.461252    3.430163
 ---------------------------------------------------------------------

 SCF Done:  E(RmPW1PW91) =  -1064.37462538     A.U. after   13 cycles

      1  C    Isotropic =   103.4228   Anisotropy =    47.8684

      2  C    Isotropic =   137.7488   Anisotropy =    30.1010

      3  C    Isotropic =   104.7491   Anisotropy =    55.4738

      4  C    Isotropic =   139.8210   Anisotropy =    29.8142

      5  C    Isotropic =     7.5264   Anisotropy =   100.9550

      6  H    Isotropic =    27.9166   Anisotropy =     4.6870

      7  H    Isotropic =    29.9980   Anisotropy =     3.9474

      8  H    Isotropic =    29.4252   Anisotropy =     4.2542

      9  H    Isotropic =    29.0764   Anisotropy =     3.8832

     10  O    Isotropic =   112.8258   Anisotropy =   209.8316

     11  O    Isotropic =  -134.8134   Anisotropy =   594.7163

     12  C    Isotropic =   156.4208   Anisotropy =    26.0661

     13  C    Isotropic =   174.9883   Anisotropy =    21.5072

     14  C    Isotropic =   176.2815   Anisotropy =    16.7491

     15  O    Isotropic =   222.2627   Anisotropy =    62.4098

     16  Si   Isotropic =   334.8685   Anisotropy =    53.4783

     17  C    Isotropic =   184.7960   Anisotropy =    11.2962

     18  C    Isotropic =   185.0540   Anisotropy =     8.5075

     19  C    Isotropic =   186.0675   Anisotropy =    13.4955

     20  H    Isotropic =    32.1647   Anisotropy =    10.4816

     21  H    Isotropic =    31.9467   Anisotropy =     6.2676

     22  H    Isotropic =    31.8777   Anisotropy =     7.1348

     23  H    Isotropic =    32.3775   Anisotropy =     9.6947

     24  H    Isotropic =    32.1069   Anisotropy =     8.4673

     25  H    Isotropic =    32.0060   Anisotropy =     8.6706

     26  H    Isotropic =    32.3524   Anisotropy =    10.2356

     27  H    Isotropic =    31.9413   Anisotropy =     7.9132

     28  H    Isotropic =    32.0466   Anisotropy =     6.1978

     29  H    Isotropic =    30.4481   Anisotropy =     7.2952

     30  H    Isotropic =    31.1425   Anisotropy =     9.7286

     31  H    Isotropic =    31.3831   Anisotropy =     7.8049

     32  H    Isotropic =    30.6641   Anisotropy =     5.7089

     33  H    Isotropic =    30.2438   Anisotropy =     5.6068

     34  H    Isotropic =    30.5731   Anisotropy =     7.9750

     35  H    Isotropic =    31.3285   Anisotropy =     8.6605

     36  H    Isotropic =    31.0392   Anisotropy =    11.3768

     37  C    Isotropic =   141.1456   Anisotropy =    27.3649

     38  C    Isotropic =    45.5049   Anisotropy =   177.1853

     39  C    Isotropic =    60.7613   Anisotropy =   147.8426

     40  H    Isotropic =    29.1658   Anisotropy =     2.9302

     41  H    Isotropic =    29.6250   Anisotropy =     6.3409

     42  H    Isotropic =    25.9408   Anisotropy =     6.1092

     43  H    Isotropic =    26.6841   Anisotropy =     6.6820

     44  H    Isotropic =    26.5622   Anisotropy =     7.1550

 The electronic state is 1-A.
 Alpha  occ. eigenvalues --  -66.26898 -19.25960 -19.21196 -19.20118 -10.37269
 Alpha  occ. eigenvalues --  -10.32312 -10.30124 -10.25089 -10.25050 -10.25021
 Alpha  occ. eigenvalues --  -10.25012 -10.23581 -10.23529 -10.22535 -10.21808
 Alpha  occ. eigenvalues --  -10.20811 -10.20548 -10.20424  -5.32731  -3.66577
 Alpha  occ. eigenvalues --   -3.66347  -3.66313  -1.13522  -1.04919  -1.03854
 Alpha  occ. eigenvalues --   -0.85887  -0.83371  -0.81027  -0.77805  -0.73881
 Alpha  occ. eigenvalues --   -0.73140  -0.71919  -0.70285  -0.69885  -0.66708
 Alpha  occ. eigenvalues --   -0.63565  -0.61976  -0.58504  -0.56974  -0.53497
 Alpha  occ. eigenvalues --   -0.52894  -0.50616  -0.49141  -0.48326  -0.47206
 Alpha  occ. eigenvalues --   -0.46566  -0.45470  -0.45234  -0.44496  -0.43913
 Alpha  occ. eigenvalues --   -0.42921  -0.42531  -0.41892  -0.41618  -0.40908
 Alpha  occ. eigenvalues --   -0.40832  -0.40527  -0.40252  -0.39626  -0.38985
 Alpha  occ. eigenvalues --   -0.37905  -0.37682  -0.37214  -0.36205  -0.35935
 Alpha  occ. eigenvalues --   -0.35421  -0.34685  -0.33714  -0.32179  -0.31061
 Alpha  occ. eigenvalues --   -0.30370  -0.29601  -0.28394  -0.27251
 Alpha virt. eigenvalues --   -0.01400   0.00764   0.03981   0.05647   0.06278
 Alpha virt. eigenvalues --    0.06898   0.07185   0.08039   0.08587   0.08980
 Alpha virt. eigenvalues --    0.09556   0.09941   0.10395   0.10729   0.11161

 Mulliken charges:
               1
     1  C   -0.031582
     2  C   -0.265649
     3  C    0.156149
     4  C   -0.579813
     5  C    0.459053
     6  H    0.263214
     7  H    0.247801
     8  H    0.292630
     9  H    0.272860
    10  O   -0.320599
    11  O   -0.381341
    12  C   -0.455511
    13  C   -0.659129
    14  C   -0.698423
    15  O   -0.618431
    16  Si   1.399217
    17  C   -1.056848
    18  C   -1.078728
    19  C   -1.037266
    20  H    0.247777
    21  H    0.248772
    22  H    0.248936
    23  H    0.235020
    24  H    0.237634
    25  H    0.237585
    26  H    0.237119
    27  H    0.240460
    28  H    0.242387
    29  H    0.259076
    30  H    0.241682
    31  H    0.233038
    32  H    0.228349
    33  H    0.243798
    34  H    0.236807
    35  H    0.221460
    36  H    0.226627
    37  C   -0.535519
    38  C   -0.212919
    39  C   -0.447688
    40  H    0.272942
    41  H    0.258289
    42  H    0.229866
    43  H    0.233444
    44  H    0.227454
 Sum of Mulliken charges =   0.00000

 Dipole moment (field-independent basis, Debye):
    X=             -2.0667    Y=             -4.0405    Z=              0.8799  Tot=              4.6229
 Quadrupole moment (field-independent basis, Debye-Ang):
   XX=           -119.2699   YY=           -130.9239   ZZ=           -116.5748
   XY=            -14.1128   XZ=              1.0809   YZ=             -0.4787

 Normal termination of Gaussian 09 at Thu Mar  8 13:22:59 2018.
