 Gaussian 09, Revision D.01,
 Gaussian 09:  EM64L-G09RevD.01 24-Apr-2013

 --------------------------------------------------------
 #mPW1PW91/6-311g(d) nmr=(giao) scrf=(solvent=chloroform)
 --------------------------------------------------------

 -------------
 P_ng_3ginp006
 -------------
 Symbolic Z-matrix:
 Charge =  0 Multiplicity = 1

                         Standard orientation:
 ---------------------------------------------------------------------
 Center     Atomic      Atomic             Coordinates (Angstroms)
 Number     Number       Type             X           Y           Z
 ---------------------------------------------------------------------
      1          6           0        2.143077   -0.948521    0.661584
      2          6           0        1.126779   -0.013794    1.337619
      3          6           0        0.027941    0.463207    0.327691
      4          6           0        0.615808    0.559971   -1.095877
      5          6           0        2.113193    0.658700   -1.157867
      6          1           0        2.931642   -1.153504    1.397701
      7          1           0        1.717074    0.861736    1.636063
      8          1           0        0.344068   -0.306307   -1.709883
      9          1           0        0.203153    1.429755   -1.621018
     10          8           0        2.805123   -0.218414   -0.394074
     11          8           0        2.684960    1.424101   -1.927098
     12          6           0        1.628815   -2.303382    0.154487
     13          6           0        2.756709   -3.169943   -0.394976
     14          6           0        0.570630   -0.613576    2.635275
     15          8           0       -0.969972   -0.587817    0.352268
     16         14           0       -2.510302   -0.576175   -0.306454
     17          6           0       -3.074595   -2.364097   -0.547536
     18          6           0       -3.734941    0.243561    0.862031
     19          6           0       -2.607996    0.269218   -1.977406
     20          1           0       -4.755883    0.132892    0.484518
     21          1           0       -3.684018   -0.216737    1.853145
     22          1           0       -3.527040    1.311532    0.968023
     23          1           0       -1.941268   -0.213146   -2.697917
     24          1           0       -3.626936    0.212510   -2.372641
     25          1           0       -2.334892    1.325418   -1.907509
     26          1           0       -2.401177   -2.885302   -1.234128
     27          1           0       -3.074245   -2.895208    0.408702
     28          1           0       -4.086321   -2.394115   -0.962157
     29          1           0       -0.074838    0.102330    3.153212
     30          1           0       -0.008774   -1.525241    2.463310
     31          1           0        1.388637   -0.868037    3.318169
     32          1           0        0.896411   -2.178903   -0.647058
     33          1           0        1.136247   -2.848491    0.966193
     34          1           0        2.363784   -4.140210   -0.715231
     35          1           0        3.235104   -2.699676   -1.259716
     36          1           0        3.520791   -3.349442    0.367991
     37          6           0       -0.562580    1.836951    0.797545
     38          6           0        0.407526    2.985824    0.893945
     39          6           0        0.446851    4.010393    0.032528
     40          1           0       -1.044824    1.714958    1.775634
     41          1           0       -1.375420    2.135442    0.125210
     42          1           0        1.094505    2.995470    1.737946
     43          1           0        1.163490    4.816837    0.161468
     44          1           0       -0.219249    4.071859   -0.822690
 ---------------------------------------------------------------------

 SCF Done:  E(RmPW1PW91) =  -1064.37373016     A.U. after   13 cycles

      1  C    Isotropic =   100.5510   Anisotropy =    44.2233

      2  C    Isotropic =   142.5242   Anisotropy =     8.0829

      3  C    Isotropic =   104.7905   Anisotropy =    48.7877

      4  C    Isotropic =   140.1962   Anisotropy =    30.0964

      5  C    Isotropic =     8.5386   Anisotropy =   101.9706

      6  H    Isotropic =    27.8608   Anisotropy =     5.0117

      7  H    Isotropic =    30.0306   Anisotropy =     6.3225

      8  H    Isotropic =    29.3936   Anisotropy =     2.9794

      9  H    Isotropic =    29.2143   Anisotropy =     3.8289

     10  O    Isotropic =    91.6232   Anisotropy =   211.4734

     11  O    Isotropic =  -118.3355   Anisotropy =   585.0279

     12  C    Isotropic =   161.5950   Anisotropy =    10.1582

     13  C    Isotropic =   174.3847   Anisotropy =    23.7825

     14  C    Isotropic =   175.2430   Anisotropy =    18.6287

     15  O    Isotropic =   230.0778   Anisotropy =    52.3766

     16  Si   Isotropic =   334.2657   Anisotropy =    52.9106

     17  C    Isotropic =   186.4018   Anisotropy =    12.5182

     18  C    Isotropic =   184.4212   Anisotropy =    12.4560

     19  C    Isotropic =   185.4493   Anisotropy =     6.1682

     20  H    Isotropic =    32.3539   Anisotropy =    10.2869

     21  H    Isotropic =    31.9646   Anisotropy =     7.9354

     22  H    Isotropic =    32.0571   Anisotropy =     6.3698

     23  H    Isotropic =    31.9142   Anisotropy =     6.7472

     24  H    Isotropic =    32.1529   Anisotropy =    10.5867

     25  H    Isotropic =    31.9261   Anisotropy =     6.9158

     26  H    Isotropic =    32.0985   Anisotropy =     7.9897

     27  H    Isotropic =    31.9651   Anisotropy =     8.4228

     28  H    Isotropic =    32.3505   Anisotropy =     9.9584

     29  H    Isotropic =    30.9319   Anisotropy =     8.4194

     30  H    Isotropic =    30.7669   Anisotropy =     5.7311

     31  H    Isotropic =    31.3701   Anisotropy =    10.9956

     32  H    Isotropic =    30.0982   Anisotropy =     8.8799

     33  H    Isotropic =    30.3287   Anisotropy =     4.8508

     34  H    Isotropic =    30.9496   Anisotropy =    10.6382

     35  H    Isotropic =    30.7324   Anisotropy =     7.9141

     36  H    Isotropic =    31.2764   Anisotropy =    10.2492

     37  C    Isotropic =   140.3404   Anisotropy =    26.6983

     38  C    Isotropic =    47.6543   Anisotropy =   169.9918

     39  C    Isotropic =    60.1925   Anisotropy =   146.2885

     40  H    Isotropic =    29.3856   Anisotropy =     3.5312

     41  H    Isotropic =    29.8749   Anisotropy =     4.3116

     42  H    Isotropic =    26.1033   Anisotropy =     6.4256

     43  H    Isotropic =    26.7030   Anisotropy =     6.3929

     44  H    Isotropic =    26.5958   Anisotropy =     7.2972

 The electronic state is 1-A.
 Alpha  occ. eigenvalues --  -66.26961 -19.25958 -19.21042 -19.19620 -10.36932
 Alpha  occ. eigenvalues --  -10.32361 -10.30229 -10.25221 -10.25014 -10.24797
 Alpha  occ. eigenvalues --  -10.24659 -10.23351 -10.23329 -10.22597 -10.21869
 Alpha  occ. eigenvalues --  -10.20905 -10.20646 -10.20475  -5.32795  -3.66642
 Alpha  occ. eigenvalues --   -3.66411  -3.66375  -1.13118  -1.04601  -1.03878
 Alpha  occ. eigenvalues --   -0.85684  -0.83071  -0.80313  -0.78334  -0.73940
 Alpha  occ. eigenvalues --   -0.73077  -0.71906  -0.70360  -0.69980  -0.66312
 Alpha  occ. eigenvalues --   -0.63932  -0.62486  -0.58133  -0.54548  -0.54207
 Alpha  occ. eigenvalues --   -0.51965  -0.51449  -0.49588  -0.48575  -0.46991
 Alpha  occ. eigenvalues --   -0.46015  -0.45737  -0.45137  -0.43748  -0.43423
 Alpha  occ. eigenvalues --   -0.42787  -0.42576  -0.42229  -0.42065  -0.41105
 Alpha  occ. eigenvalues --   -0.40811  -0.40372  -0.39853  -0.39602  -0.39113
 Alpha  occ. eigenvalues --   -0.38148  -0.37922  -0.37792  -0.36381  -0.35606
 Alpha  occ. eigenvalues --   -0.35137  -0.34738  -0.33676  -0.31729  -0.30756
 Alpha  occ. eigenvalues --   -0.30089  -0.29682  -0.28460  -0.27032
 Alpha virt. eigenvalues --   -0.00735   0.01311   0.03832   0.04961   0.06031
 Alpha virt. eigenvalues --    0.06401   0.07043   0.07765   0.08286   0.09184
 Alpha virt. eigenvalues --    0.09266   0.10230   0.10796   0.11319   0.11474

 Mulliken charges:
               1
     1  C   -0.033182
     2  C   -0.348920
     3  C    0.244864
     4  C   -0.656554
     5  C    0.500067
     6  H    0.246086
     7  H    0.259244
     8  H    0.298400
     9  H    0.275580
    10  O   -0.318815
    11  O   -0.387088
    12  C   -0.447115
    13  C   -0.658858
    14  C   -0.657203
    15  O   -0.622076
    16  Si   1.419631
    17  C   -1.040655
    18  C   -1.059486
    19  C   -1.077881
    20  H    0.234762
    21  H    0.239529
    22  H    0.243053
    23  H    0.247570
    24  H    0.246920
    25  H    0.248917
    26  H    0.236763
    27  H    0.237070
    28  H    0.235743
    29  H    0.236748
    30  H    0.250971
    31  H    0.230910
    32  H    0.246333
    33  H    0.240510
    34  H    0.226722
    35  H    0.233208
    36  H    0.221053
    37  C   -0.562437
    38  C   -0.187726
    39  C   -0.444510
    40  H    0.268860
    41  H    0.251701
    42  H    0.224478
    43  H    0.231862
    44  H    0.224951
 Sum of Mulliken charges =   0.00000

 Dipole moment (field-independent basis, Debye):
    X=             -3.9875    Y=             -1.4976    Z=              2.8800  Tot=              5.1417
 Quadrupole moment (field-independent basis, Debye-Ang):
   XX=           -130.3617   YY=           -118.1439   ZZ=           -120.1299
   XY=             -6.7883   XZ=             13.9825   YZ=              4.2085

 Normal termination of Gaussian 09 at Thu Mar  8 13:25:20 2018.
