 Gaussian 09, Revision D.01,
 Gaussian 09:  EM64L-G09RevD.01 24-Apr-2013

 --------------------------------------------------------
 #mPW1PW91/6-311g(d) nmr=(giao) scrf=(solvent=chloroform)
 --------------------------------------------------------

 -------------
 P_ng_3ginp003
 -------------
 Symbolic Z-matrix:
 Charge =  0 Multiplicity = 1

                         Standard orientation:
 ---------------------------------------------------------------------
 Center     Atomic      Atomic             Coordinates (Angstroms)
 Number     Number       Type             X           Y           Z
 ---------------------------------------------------------------------
      1          6           0        2.360986    0.150383    0.277876
      2          6           0        1.006539    0.246808    0.989325
      3          6           0       -0.135103    0.001709   -0.052257
      4          6           0        0.096239   -1.383502   -0.670130
      5          6           0        1.512071   -1.687652   -1.083361
      6          1           0        2.436462    0.926774   -0.490751
      7          1           0        0.894944    1.253966    1.411746
      8          1           0       -0.220357   -2.175691    0.018943
      9          1           0       -0.514762   -1.490764   -1.572658
     10          8           0        2.518480   -1.113491   -0.393992
     11          8           0        1.746865   -2.517746   -1.957839
     12          6           0        3.563451    0.339607    1.216780
     13          6           0        4.874455    0.473581    0.449797
     14          6           0        0.918737   -0.710232    2.198360
     15          8           0       -1.351946    0.038354    0.726938
     16         14           0       -2.939380   -0.156009    0.237226
     17          6           0       -3.707399    1.497824   -0.234162
     18          6           0       -3.188800   -1.341912   -1.191139
     19          6           0       -3.935881   -0.831470    1.698364
     20          1           0       -4.256565   -1.473459   -1.392565
     21          1           0       -2.723740   -0.963875   -2.105786
     22          1           0       -2.768448   -2.325633   -0.963345
     23          1           0       -3.870707   -0.148423    2.550180
     24          1           0       -4.988173   -0.946491    1.423008
     25          1           0       -3.546291   -1.806863    2.003746
     26          1           0       -4.779547    1.381431   -0.418581
     27          1           0       -3.574564    2.225304    0.571859
     28          1           0       -3.248529    1.898393   -1.142012
     29          1           0       -0.070090   -0.682229    2.666360
     30          1           0        1.134525   -1.746732    1.922343
     31          1           0        1.632494   -0.418705    2.975900
     32          1           0        3.663314   -0.521564    1.887318
     33          1           0        3.420761    1.235781    1.831212
     34          1           0        5.704966    0.622289    1.147214
     35          1           0        5.085679   -0.424716   -0.138618
     36          1           0        4.845124    1.331644   -0.229272
     37          6           0       -0.146104    1.086264   -1.184898
     38          6           0       -0.159418    2.512196   -0.695927
     39          6           0        0.721132    3.446973   -1.075540
     40          1           0       -1.033174    0.955174   -1.815149
     41          1           0        0.706288    0.936247   -1.859003
     42          1           0       -0.944079    2.787080    0.006752
     43          1           0        0.653949    4.460018   -0.689008
     44          1           0        1.519220    3.234789   -1.780376
 ---------------------------------------------------------------------

 SCF Done:  E(RmPW1PW91) =  -1064.37734283     A.U. after   12 cycles

      1  C    Isotropic =   106.8876   Anisotropy =    41.9044

      2  C    Isotropic =   143.9851   Anisotropy =    27.8999

      3  C    Isotropic =   105.4386   Anisotropy =    56.6244

      4  C    Isotropic =   143.5435   Anisotropy =    37.2161

      5  C    Isotropic =     8.9684   Anisotropy =    95.1909

      6  H    Isotropic =    28.1369   Anisotropy =     3.8285

      7  H    Isotropic =    30.0738   Anisotropy =     5.3486

      8  H    Isotropic =    29.4439   Anisotropy =     4.1181

      9  H    Isotropic =    29.3906   Anisotropy =     4.7631

     10  O    Isotropic =   118.4845   Anisotropy =   203.3365

     11  O    Isotropic =  -130.0061   Anisotropy =   595.3370

     12  C    Isotropic =   157.0651   Anisotropy =    22.4056

     13  C    Isotropic =   174.2869   Anisotropy =    22.9193

     14  C    Isotropic =   178.2592   Anisotropy =    15.9024

     15  O    Isotropic =   244.8745   Anisotropy =    16.6443

     16  Si   Isotropic =   334.0036   Anisotropy =    55.4397

     17  C    Isotropic =   184.8632   Anisotropy =    10.3958

     18  C    Isotropic =   184.6499   Anisotropy =    10.1851

     19  C    Isotropic =   186.0315   Anisotropy =    12.7516

     20  H    Isotropic =    32.1327   Anisotropy =    10.5235

     21  H    Isotropic =    31.9366   Anisotropy =     6.1115

     22  H    Isotropic =    31.8725   Anisotropy =     6.8997

     23  H    Isotropic =    31.9559   Anisotropy =     8.6073

     24  H    Isotropic =    32.3590   Anisotropy =     9.8158

     25  H    Isotropic =    32.0636   Anisotropy =     8.0876

     26  H    Isotropic =    32.2828   Anisotropy =    10.1913

     27  H    Isotropic =    31.9231   Anisotropy =     8.0249

     28  H    Isotropic =    32.0237   Anisotropy =     6.3330

     29  H    Isotropic =    30.6417   Anisotropy =     8.2648

     30  H    Isotropic =    31.3913   Anisotropy =     7.4324

     31  H    Isotropic =    31.1152   Anisotropy =     9.7294

     32  H    Isotropic =    30.2124   Anisotropy =     4.6535

     33  H    Isotropic =    30.6992   Anisotropy =     6.6664

     34  H    Isotropic =    30.9784   Anisotropy =    11.4616

     35  H    Isotropic =    30.6191   Anisotropy =     8.1480

     36  H    Isotropic =    31.2427   Anisotropy =     8.5590

     37  C    Isotropic =   140.9165   Anisotropy =    35.5027

     38  C    Isotropic =    45.2215   Anisotropy =   179.5452

     39  C    Isotropic =    64.1748   Anisotropy =   142.1663

     40  H    Isotropic =    29.4830   Anisotropy =     4.5530

     41  H    Isotropic =    29.6591   Anisotropy =     5.0774

     42  H    Isotropic =    25.7648   Anisotropy =     6.6534

     43  H    Isotropic =    26.6907   Anisotropy =     6.9708

     44  H    Isotropic =    26.7425   Anisotropy =     7.1696

 The electronic state is 1-A.
 Alpha  occ. eigenvalues --  -66.27022 -19.26362 -19.21360 -19.20081 -10.37498
 Alpha  occ. eigenvalues --  -10.32225 -10.30426 -10.25240 -10.25091 -10.25071
 Alpha  occ. eigenvalues --  -10.24640 -10.23736 -10.23244 -10.22185 -10.21958
 Alpha  occ. eigenvalues --  -10.20909 -10.20533 -10.20518  -5.32850  -3.66696
 Alpha  occ. eigenvalues --   -3.66465  -3.66433  -1.13651  -1.04957  -1.04159
 Alpha  occ. eigenvalues --   -0.85972  -0.83229  -0.81161  -0.77579  -0.74022
 Alpha  occ. eigenvalues --   -0.73366  -0.71479  -0.70342  -0.69920  -0.66620
 Alpha  occ. eigenvalues --   -0.64057  -0.62252  -0.58916  -0.54961  -0.53191
 Alpha  occ. eigenvalues --   -0.53039  -0.51486  -0.50329  -0.48069  -0.47465
 Alpha  occ. eigenvalues --   -0.46695  -0.45417  -0.45103  -0.44802  -0.44017
 Alpha  occ. eigenvalues --   -0.43004  -0.42738  -0.41946  -0.41704  -0.40982
 Alpha  occ. eigenvalues --   -0.40606  -0.40292  -0.39724  -0.39558  -0.38740
 Alpha  occ. eigenvalues --   -0.38415  -0.37987  -0.36986  -0.36798  -0.36363
 Alpha  occ. eigenvalues --   -0.35565  -0.34518  -0.33391  -0.31729  -0.31139
 Alpha  occ. eigenvalues --   -0.30383  -0.29631  -0.28483  -0.27471
 Alpha virt. eigenvalues --   -0.00671   0.00542   0.03930   0.05530   0.06087
 Alpha virt. eigenvalues --    0.06331   0.07149   0.08286   0.08301   0.09282
 Alpha virt. eigenvalues --    0.09451   0.10116   0.10421   0.10920   0.11392

 Mulliken charges:
               1
     1  C   -0.053475
     2  C   -0.302705
     3  C    0.200753
     4  C   -0.627252
     5  C    0.478532
     6  H    0.258803
     7  H    0.255364
     8  H    0.298196
     9  H    0.279220
    10  O   -0.312360
    11  O   -0.383370
    12  C   -0.462691
    13  C   -0.662661
    14  C   -0.672019
    15  O   -0.623649
    16  Si   1.398731
    17  C   -1.061328
    18  C   -1.083404
    19  C   -1.038832
    20  H    0.249583
    21  H    0.248281
    22  H    0.251311
    23  H    0.237263
    24  H    0.234134
    25  H    0.235470
    26  H    0.238472
    27  H    0.241825
    28  H    0.243665
    29  H    0.259932
    30  H    0.227731
    31  H    0.242458
    32  H    0.243863
    33  H    0.240416
    34  H    0.228687
    35  H    0.236706
    36  H    0.221498
    37  C   -0.541687
    38  C   -0.173839
    39  C   -0.453557
    40  H    0.262244
    41  H    0.253826
    42  H    0.231906
    43  H    0.228944
    44  H    0.225016
 Sum of Mulliken charges =   0.00000

 Dipole moment (field-independent basis, Debye):
    X=             -2.0081    Y=              3.5231    Z=              2.1118  Tot=              4.5722
 Quadrupole moment (field-independent basis, Debye-Ang):
   XX=           -118.3297   YY=           -125.9521   ZZ=           -124.2956
   XY=             11.5169   XZ=              9.0214   YZ=             -7.6371

 Normal termination of Gaussian 09 at Thu Mar  8 13:20:24 2018.
