 Gaussian 09, Revision D.01,
 Gaussian 09:  EM64L-G09RevD.01 24-Apr-2013

 --------------------------------------------------------
 #mPW1PW91/6-311g(d) nmr=(giao) scrf=(solvent=chloroform)
 --------------------------------------------------------

 -------------
 P_ng_2ginp001
 -------------
 Symbolic Z-matrix:
 Charge =  0 Multiplicity = 1

                         Standard orientation:
 ---------------------------------------------------------------------
 Center     Atomic      Atomic             Coordinates (Angstroms)
 Number     Number       Type             X           Y           Z
 ---------------------------------------------------------------------
      1          6           0       -2.253633   -0.643460   -0.320386
      2          6           0       -0.771873   -0.973151   -0.583300
      3          6           0        0.116872    0.290114   -0.401929
      4          6           0       -0.126396    0.812062    1.016868
      5          6           0       -1.566954    1.122571    1.276733
      6          1           0       -2.681175   -0.135570   -1.193525
      7          1           0       -0.457010   -1.703236    0.172743
      8          1           0        0.166789    0.079352    1.776522
      9          1           0        0.469577    1.710069    1.213717
     10          8           0       -2.471916    0.242443    0.803175
     11          8           0       -1.909759    2.061957    1.987116
     12          6           0       -3.092629   -1.908826   -0.059622
     13          6           0       -4.574677   -1.602297    0.126101
     14          6           0       -0.580901   -1.660349   -1.944679
     15          8           0        1.493576   -0.040214   -0.693174
     16         14           0        2.656366   -0.713405    0.300581
     17          6           0        3.273936    0.515767    1.580517
     18          6           0        2.070894   -2.266140    1.175002
     19          6           0        4.143702   -1.202806   -0.762249
     20          1           0        2.893461   -2.721593    1.734845
     21          1           0        1.266277   -2.046308    1.881720
     22          1           0        1.705224   -3.001715    0.452480
     23          1           0        4.930273   -1.640636   -0.140951
     24          1           0        3.845659   -1.937004   -1.516295
     25          1           0        4.550578   -0.325235   -1.272871
     26          1           0        3.559697    1.456748    1.101251
     27          1           0        2.507235    0.729790    2.329658
     28          1           0        4.150010    0.117000    2.100864
     29          1           0        0.476555   -1.831755   -2.166970
     30          1           0       -1.066246   -2.640878   -1.962123
     31          1           0       -1.007457   -1.066808   -2.759373
     32          1           0       -2.732225   -2.407337    0.848478
     33          1           0       -2.992007   -2.617257   -0.887503
     34          1           0       -4.747931   -0.972845    1.004335
     35          1           0       -4.980963   -1.090369   -0.751958
     36          1           0       -5.135619   -2.531875    0.266359
     37          6           0       -0.242825    1.391114   -1.460732
     38          6           0        0.531192    2.676608   -1.302611
     39          6           0       -0.024018    3.861311   -1.017912
     40          1           0       -1.314924    1.614875   -1.450244
     41          1           0       -0.011422    1.018491   -2.466702
     42          1           0        1.609247    2.615748   -1.442890
     43          1           0        0.589477    4.752154   -0.920319
     44          1           0       -1.093560    3.975270   -0.867138
 ---------------------------------------------------------------------

 SCF Done:  E(RmPW1PW91) =  -1064.37806500     A.U. after   13 cycles

      1  C    Isotropic =   101.3797   Anisotropy =    48.0591

      2  C    Isotropic =   140.5972   Anisotropy =    25.2238

      3  C    Isotropic =   105.1342   Anisotropy =    57.7281

      4  C    Isotropic =   143.4805   Anisotropy =    27.5628

      5  C    Isotropic =    10.3144   Anisotropy =    92.7383

      6  H    Isotropic =    28.1993   Anisotropy =     2.0485

      7  H    Isotropic =    30.0769   Anisotropy =     5.7612

      8  H    Isotropic =    29.7447   Anisotropy =     5.0459

      9  H    Isotropic =    29.0993   Anisotropy =     3.3591

     10  O    Isotropic =   107.4654   Anisotropy =   197.3317

     11  O    Isotropic =  -127.1812   Anisotropy =   577.4740

     12  C    Isotropic =   155.7139   Anisotropy =    26.8741

     13  C    Isotropic =   174.8878   Anisotropy =    21.9403

     14  C    Isotropic =   176.0737   Anisotropy =    20.7168

     15  O    Isotropic =   247.1076   Anisotropy =    18.9799

     16  Si   Isotropic =   335.2898   Anisotropy =    52.4804

     17  C    Isotropic =   185.0691   Anisotropy =    11.1630

     18  C    Isotropic =   185.4403   Anisotropy =     7.3821

     19  C    Isotropic =   186.4374   Anisotropy =    13.1524

     20  H    Isotropic =    32.2100   Anisotropy =    10.6736

     21  H    Isotropic =    32.1157   Anisotropy =     6.0299

     22  H    Isotropic =    31.9717   Anisotropy =     6.8848

     23  H    Isotropic =    32.3620   Anisotropy =     9.7106

     24  H    Isotropic =    32.0009   Anisotropy =     8.3950

     25  H    Isotropic =    31.9519   Anisotropy =     8.9589

     26  H    Isotropic =    31.9344   Anisotropy =     8.1260

     27  H    Isotropic =    32.0787   Anisotropy =     6.2555

     28  H    Isotropic =    32.3229   Anisotropy =    10.3494

     29  H    Isotropic =    30.4642   Anisotropy =     7.3693

     30  H    Isotropic =    31.2494   Anisotropy =     9.3643

     31  H    Isotropic =    31.4669   Anisotropy =     8.6142

     32  H    Isotropic =    30.5561   Anisotropy =     5.0414

     33  H    Isotropic =    30.1997   Anisotropy =     5.6687

     34  H    Isotropic =    30.5211   Anisotropy =     7.9185

     35  H    Isotropic =    31.2125   Anisotropy =     9.1643

     36  H    Isotropic =    30.9903   Anisotropy =    11.2979

     37  C    Isotropic =   144.1806   Anisotropy =    18.7201

     38  C    Isotropic =    44.5266   Anisotropy =   178.9753

     39  C    Isotropic =    63.0929   Anisotropy =   142.8226

     40  H    Isotropic =    30.1638   Anisotropy =     6.1237

     41  H    Isotropic =    29.4342   Anisotropy =     4.2557

     42  H    Isotropic =    25.6837   Anisotropy =     6.8704

     43  H    Isotropic =    26.6726   Anisotropy =     6.8692

     44  H    Isotropic =    26.7948   Anisotropy =     7.3518

 The electronic state is 1-A.
 Alpha  occ. eigenvalues --  -66.27031 -19.26408 -19.21387 -19.20125 -10.37518
 Alpha  occ. eigenvalues --  -10.32240 -10.31027 -10.25547 -10.25260 -10.24271
 Alpha  occ. eigenvalues --  -10.24012 -10.23958 -10.22851 -10.22660 -10.22022
 Alpha  occ. eigenvalues --  -10.20925 -10.20649 -10.20527  -5.32867  -3.66717
 Alpha  occ. eigenvalues --   -3.66482  -3.66446  -1.13555  -1.04978  -1.04196
 Alpha  occ. eigenvalues --   -0.86139  -0.83586  -0.80631  -0.78071  -0.74244
 Alpha  occ. eigenvalues --   -0.72553  -0.72096  -0.70423  -0.70007  -0.66531
 Alpha  occ. eigenvalues --   -0.64139  -0.61888  -0.58703  -0.56456  -0.53895
 Alpha  occ. eigenvalues --   -0.52767  -0.50174  -0.49519  -0.48688  -0.47781
 Alpha  occ. eigenvalues --   -0.46415  -0.45600  -0.44998  -0.44411  -0.43497
 Alpha  occ. eigenvalues --   -0.42825  -0.42586  -0.42120  -0.41797  -0.41402
 Alpha  occ. eigenvalues --   -0.40961  -0.40564  -0.39854  -0.39723  -0.38843
 Alpha  occ. eigenvalues --   -0.38255  -0.38016  -0.36942  -0.36666  -0.36241
 Alpha  occ. eigenvalues --   -0.35755  -0.34360  -0.33664  -0.32375  -0.31449
 Alpha  occ. eigenvalues --   -0.30423  -0.29109  -0.28503  -0.27167
 Alpha virt. eigenvalues --   -0.00465   0.01208   0.03934   0.05642   0.05881
 Alpha virt. eigenvalues --    0.06627   0.07621   0.07925   0.08165   0.08793
 Alpha virt. eigenvalues --    0.09900   0.09961   0.10256   0.10383   0.11229

 Mulliken charges:
               1
     1  C   -0.026811
     2  C   -0.306328
     3  C    0.162374
     4  C   -0.615941
     5  C    0.472327
     6  H    0.248311
     7  H    0.262665
     8  H    0.279278
     9  H    0.289446
    10  O   -0.323777
    11  O   -0.382709
    12  C   -0.449456
    13  C   -0.660670
    14  C   -0.674858
    15  O   -0.627644
    16  Si   1.416316
    17  C   -1.059952
    18  C   -1.081987
    19  C   -1.041554
    20  H    0.247480
    21  H    0.245825
    22  H    0.246763
    23  H    0.235756
    24  H    0.237540
    25  H    0.238289
    26  H    0.243690
    27  H    0.243203
    28  H    0.238052
    29  H    0.260604
    30  H    0.240547
    31  H    0.232706
    32  H    0.231383
    33  H    0.244779
    34  H    0.238422
    35  H    0.222547
    36  H    0.228128
    37  C   -0.505419
    38  C   -0.188280
    39  C   -0.447529
    40  H    0.251196
    41  H    0.263704
    42  H    0.222133
    43  H    0.225602
    44  H    0.223849
 Sum of Mulliken charges =   0.00000

 Dipole moment (field-independent basis, Debye):
    X=              1.8142    Y=             -4.2154    Z=             -2.3586  Tot=              5.1598
 Quadrupole moment (field-independent basis, Debye-Ang):
   XX=           -121.0799   YY=           -121.5863   ZZ=           -124.7020
   XY=              8.2920   XZ=             11.3843   YZ=             -6.3071

 Normal termination of Gaussian 09 at Thu Mar  8 13:19:21 2018.
