 Gaussian 09, Revision D.01,
 Gaussian 09:  EM64L-G09RevD.01 24-Apr-2013

 --------------------------------------------------------
 #mPW1PW91/6-311g(d) nmr=(giao) scrf=(solvent=chloroform)
 --------------------------------------------------------

 -------------
 P_ng_3ginp009
 -------------
 Symbolic Z-matrix:
 Charge =  0 Multiplicity = 1

                         Standard orientation:
 ---------------------------------------------------------------------
 Center     Atomic      Atomic             Coordinates (Angstroms)
 Number     Number       Type             X           Y           Z
 ---------------------------------------------------------------------
      1          6           0       -2.295800    0.512569   -0.481925
      2          6           0       -1.001201    1.215809   -0.949961
      3          6           0        0.238811    0.763165   -0.117999
      4          6           0       -0.116574    0.985615    1.356241
      5          6           0       -1.416519    0.358816    1.767872
      6          1           0       -3.128564    1.094080   -0.899981
      7          1           0       -1.164621    2.282668   -0.741086
      8          1           0        0.661402    0.585962    2.011133
      9          1           0       -0.208112    2.052866    1.590757
     10          8           0       -2.465947    0.592376    0.948426
     11          8           0       -1.562001   -0.183021    2.858897
     12          6           0       -2.506535   -0.948968   -0.919179
     13          6           0       -3.916236   -1.440353   -0.600828
     14          6           0       -0.808478    1.084652   -2.466429
     15          8           0        0.412054   -0.635141   -0.412821
     16         14           0        1.689914   -1.653267   -0.053329
     17          6           0        1.087573   -3.440648   -0.207168
     18          6           0        3.093218   -1.437822   -1.289615
     19          6           0        2.380281   -1.448699    1.675202
     20          1           0        3.579725   -0.466259   -1.169519
     21          1           0        3.849774   -2.215183   -1.146683
     22          1           0        2.714814   -1.510732   -2.313416
     23          1           0        1.599962   -1.599745    2.426878
     24          1           0        3.169556   -2.184176    1.859352
     25          1           0        2.812516   -0.454361    1.816859
     26          1           0        0.279014   -3.630322    0.504710
     27          1           0        0.712464   -3.629008   -1.217244
     28          1           0        1.904127   -4.138877   -0.002148
     29          1           0       -0.046578    1.780919   -2.829665
     30          1           0       -0.500318    0.076344   -2.758861
     31          1           0       -1.736912    1.323904   -2.996297
     32          1           0       -1.813460   -1.615738   -0.398454
     33          1           0       -2.341716   -1.062675   -1.994699
     34          1           0       -4.040794   -2.472308   -0.944344
     35          1           0       -4.113319   -1.419302    0.475479
     36          1           0       -4.668729   -0.823663   -1.102421
     37          6           0        1.512730    1.594619   -0.494047
     38          6           0        1.396638    3.094754   -0.403398
     39          6           0        2.046148    3.844945    0.496058
     40          1           0        1.827432    1.343422   -1.514869
     41          1           0        2.348415    1.275648    0.141354
     42          1           0        0.769789    3.593504   -1.139985
     43          1           0        1.937014    4.925827    0.500528
     44          1           0        2.701148    3.408518    1.244272
 ---------------------------------------------------------------------

 SCF Done:  E(RmPW1PW91) =  -1064.37585744     A.U. after   12 cycles

      1  C    Isotropic =    98.4472   Anisotropy =    47.4279

      2  C    Isotropic =   145.7151   Anisotropy =     9.3194

      3  C    Isotropic =   103.0833   Anisotropy =    53.8629

      4  C    Isotropic =   143.8841   Anisotropy =    21.5202

      5  C    Isotropic =     4.2802   Anisotropy =   110.1760

      6  H    Isotropic =    27.7419   Anisotropy =     4.4061

      7  H    Isotropic =    29.7842   Anisotropy =     6.4749

      8  H    Isotropic =    29.6400   Anisotropy =     4.8118

      9  H    Isotropic =    29.4328   Anisotropy =     5.6540

     10  O    Isotropic =   110.4544   Anisotropy =   197.8071

     11  O    Isotropic =  -157.9802   Anisotropy =   626.5518

     12  C    Isotropic =   158.3558   Anisotropy =    15.3613

     13  C    Isotropic =   173.5984   Anisotropy =    24.9802

     14  C    Isotropic =   176.1530   Anisotropy =    15.4071

     15  O    Isotropic =   246.7130   Anisotropy =    39.8418

     16  Si   Isotropic =   333.7418   Anisotropy =    53.4936

     17  C    Isotropic =   186.3390   Anisotropy =    12.3125

     18  C    Isotropic =   184.2423   Anisotropy =    11.9890

     19  C    Isotropic =   185.1998   Anisotropy =     7.0812

     20  H    Isotropic =    32.0327   Anisotropy =     6.3382

     21  H    Isotropic =    32.3232   Anisotropy =    10.3184

     22  H    Isotropic =    31.9697   Anisotropy =     7.7035

     23  H    Isotropic =    31.7471   Anisotropy =     7.4361

     24  H    Isotropic =    32.1497   Anisotropy =    10.5571

     25  H    Isotropic =    31.8980   Anisotropy =     6.5688

     26  H    Isotropic =    32.0212   Anisotropy =     7.6920

     27  H    Isotropic =    32.0041   Anisotropy =     8.0838

     28  H    Isotropic =    32.3673   Anisotropy =    10.1001

     29  H    Isotropic =    30.8615   Anisotropy =     8.7885

     30  H    Isotropic =    30.8322   Anisotropy =     5.5413

     31  H    Isotropic =    31.3791   Anisotropy =    10.5483

     32  H    Isotropic =    30.0450   Anisotropy =     9.7133

     33  H    Isotropic =    30.4331   Anisotropy =     4.6040

     34  H    Isotropic =    31.0218   Anisotropy =    10.4932

     35  H    Isotropic =    30.5375   Anisotropy =     7.6238

     36  H    Isotropic =    31.4242   Anisotropy =    10.1142

     37  C    Isotropic =   140.6539   Anisotropy =    31.4522

     38  C    Isotropic =    45.5397   Anisotropy =   173.7033

     39  C    Isotropic =    61.8335   Anisotropy =   143.0978

     40  H    Isotropic =    29.3558   Anisotropy =     2.6643

     41  H    Isotropic =    29.9197   Anisotropy =     3.7351

     42  H    Isotropic =    25.9465   Anisotropy =     7.2982

     43  H    Isotropic =    26.7215   Anisotropy =     6.6771

     44  H    Isotropic =    26.7119   Anisotropy =     7.3402

 The electronic state is 1-A.
 Alpha  occ. eigenvalues --  -66.26994 -19.25472 -19.21448 -19.20077 -10.36930
 Alpha  occ. eigenvalues --  -10.32161 -10.30222 -10.25219 -10.24924 -10.24767
 Alpha  occ. eigenvalues --  -10.24712 -10.23520 -10.22734 -10.22720 -10.21447
 Alpha  occ. eigenvalues --  -10.20766 -10.20488 -10.20447  -5.32822  -3.66674
 Alpha  occ. eigenvalues --   -3.66433  -3.66401  -1.13028  -1.04757  -1.04355
 Alpha  occ. eigenvalues --   -0.85742  -0.82986  -0.80632  -0.77708  -0.73867
 Alpha  occ. eigenvalues --   -0.73118  -0.71839  -0.70257  -0.69853  -0.66276
 Alpha  occ. eigenvalues --   -0.63563  -0.62282  -0.58291  -0.56087  -0.53498
 Alpha  occ. eigenvalues --   -0.51650  -0.50443  -0.49086  -0.48630  -0.47763
 Alpha  occ. eigenvalues --   -0.46251  -0.45368  -0.44935  -0.44254  -0.43276
 Alpha  occ. eigenvalues --   -0.42827  -0.42540  -0.42264  -0.41648  -0.41091
 Alpha  occ. eigenvalues --   -0.40985  -0.40322  -0.39787  -0.39529  -0.38811
 Alpha  occ. eigenvalues --   -0.38741  -0.37950  -0.37177  -0.36497  -0.35743
 Alpha  occ. eigenvalues --   -0.35256  -0.34198  -0.33395  -0.31652  -0.30531
 Alpha  occ. eigenvalues --   -0.29936  -0.29341  -0.28956  -0.27240
 Alpha virt. eigenvalues --   -0.00630   0.00590   0.04066   0.05035   0.06054
 Alpha virt. eigenvalues --    0.06960   0.07135   0.07955   0.08871   0.09374
 Alpha virt. eigenvalues --    0.09532   0.09777   0.10619   0.11425   0.11911

 Mulliken charges:
               1
     1  C   -0.044365
     2  C   -0.286450
     3  C    0.148527
     4  C   -0.538304
     5  C    0.476369
     6  H    0.242357
     7  H    0.251239
     8  H    0.276924
     9  H    0.286653
    10  O   -0.327458
    11  O   -0.383864
    12  C   -0.450474
    13  C   -0.659415
    14  C   -0.689866
    15  O   -0.622648
    16  Si   1.434546
    17  C   -1.042910
    18  C   -1.061247
    19  C   -1.090596
    20  H    0.240866
    21  H    0.236057
    22  H    0.240375
    23  H    0.252875
    24  H    0.246850
    25  H    0.245727
    26  H    0.240220
    27  H    0.236024
    28  H    0.235716
    29  H    0.240651
    30  H    0.254246
    31  H    0.237329
    32  H    0.262508
    33  H    0.235330
    34  H    0.224204
    35  H    0.234408
    36  H    0.215304
    37  C   -0.570645
    38  C   -0.186292
    39  C   -0.448353
    40  H    0.278077
    41  H    0.249107
    42  H    0.223490
    43  H    0.230808
    44  H    0.226099
 Sum of Mulliken charges =   0.00000

 Dipole moment (field-independent basis, Debye):
    X=              2.9730    Y=              2.0972    Z=             -4.2300  Tot=              5.5794
 Quadrupole moment (field-independent basis, Debye-Ang):
   XX=           -121.9516   YY=           -112.0803   ZZ=           -129.6033
   XY=             -2.5489   XZ=             12.9247   YZ=              0.9837

 Normal termination of Gaussian 09 at Thu Mar  8 13:57:22 2018.
