 Gaussian 09, Revision D.01,
 Gaussian 09:  EM64L-G09RevD.01 24-Apr-2013

 --------------------------------------------------------
 #mPW1PW91/6-311g(d) nmr=(giao) scrf=(solvent=chloroform)
 --------------------------------------------------------

 -------------
 P_ng_2ginp017
 -------------
 Symbolic Z-matrix:
 Charge =  0 Multiplicity = 1

                         Standard orientation:
 ---------------------------------------------------------------------
 Center     Atomic      Atomic             Coordinates (Angstroms)
 Number     Number       Type             X           Y           Z
 ---------------------------------------------------------------------
      1          6           0        2.189076    0.483365    0.590461
      2          6           0        1.013018    1.467075    0.418498
      3          6           0       -0.160916    0.805029   -0.372818
      4          6           0        0.402932    0.254050   -1.687425
      5          6           0        1.665628   -0.551343   -1.552361
      6          1           0        3.061822    1.065354    0.914219
      7          1           0        0.663196    1.739206    1.423577
      8          1           0       -0.335531   -0.375554   -2.193816
      9          1           0        0.635964    1.070327   -2.382281
     10          8           0        2.579464   -0.128651   -0.654209
     11          8           0        1.923926   -1.462467   -2.334282
     12          6           0        1.983573   -0.613253    1.648151
     13          6           0        3.294621   -1.304246    2.010592
     14          6           0        1.559897    2.754484   -0.231295
     15          8           0       -0.691571   -0.213015    0.502752
     16         14           0       -1.753917   -1.467825    0.177706
     17          6           0       -3.176940   -1.027387   -0.957598
     18          6           0       -0.856039   -2.951804   -0.551351
     19          6           0       -2.511607   -2.035797    1.818582
     20          1           0       -1.522047   -3.819229   -0.587033
     21          1           0       -0.517891   -2.745788   -1.569955
     22          1           0        0.014291   -3.214004    0.056839
     23          1           0       -1.724966   -2.355705    2.507990
     24          1           0       -3.068808   -1.216287    2.281536
     25          1           0       -3.194643   -2.874089    1.654214
     26          1           0       -3.850886   -1.882451   -1.070025
     27          1           0       -3.759326   -0.195154   -0.551843
     28          1           0       -2.820096   -0.753288   -1.954265
     29          1           0        2.385449    3.161463    0.364089
     30          1           0        1.941639    2.579296   -1.241393
     31          1           0        0.804696    3.541942   -0.281908
     32          1           0        1.312368   -1.392086    1.279421
     33          1           0        1.547980   -0.185219    2.557623
     34          1           0        3.117187   -2.074247    2.768176
     35          1           0        3.743740   -1.787534    1.137290
     36          1           0        4.015748   -0.588794    2.418372
     37          6           0       -1.282845    1.848885   -0.699289
     38          6           0       -1.911948    2.499893    0.507482
     39          6           0       -2.030144    3.822758    0.677974
     40          1           0       -2.090194    1.364047   -1.254868
     41          1           0       -0.896827    2.615401   -1.382789
     42          1           0       -2.302401    1.836558    1.277388
     43          1           0       -2.500739    4.226046    1.569940
     44          1           0       -1.669279    4.532146   -0.060093
 ---------------------------------------------------------------------

 SCF Done:  E(RmPW1PW91) =  -1064.37421535     A.U. after   12 cycles

      1  C    Isotropic =    95.7143   Anisotropy =    24.7915

      2  C    Isotropic =   143.0429   Anisotropy =    16.3981

      3  C    Isotropic =   102.9748   Anisotropy =    57.8084

      4  C    Isotropic =   145.4688   Anisotropy =    34.0574

      5  C    Isotropic =     7.5281   Anisotropy =   107.5316

      6  H    Isotropic =    27.8584   Anisotropy =     3.8858

      7  H    Isotropic =    30.0621   Anisotropy =     2.8645

      8  H    Isotropic =    29.5460   Anisotropy =     3.3682

      9  H    Isotropic =    29.4632   Anisotropy =     5.7665

     10  O    Isotropic =   114.3704   Anisotropy =   214.3722

     11  O    Isotropic =  -146.3556   Anisotropy =   616.1516

     12  C    Isotropic =   150.7450   Anisotropy =    24.1971

     13  C    Isotropic =   172.8669   Anisotropy =    25.3555

     14  C    Isotropic =   169.2090   Anisotropy =    29.4560

     15  O    Isotropic =   244.4881   Anisotropy =    37.7697

     16  Si   Isotropic =   334.3834   Anisotropy =    52.9999

     17  C    Isotropic =   185.1678   Anisotropy =     8.0379

     18  C    Isotropic =   184.4265   Anisotropy =     9.1208

     19  C    Isotropic =   186.0745   Anisotropy =    12.5045

     20  H    Isotropic =    32.3448   Anisotropy =    10.3905

     21  H    Isotropic =    31.8995   Anisotropy =     6.9784

     22  H    Isotropic =    32.0520   Anisotropy =     7.1752

     23  H    Isotropic =    31.9679   Anisotropy =     8.0933

     24  H    Isotropic =    32.0232   Anisotropy =     8.6553

     25  H    Isotropic =    32.3486   Anisotropy =     9.8820

     26  H    Isotropic =    32.1564   Anisotropy =    10.4326

     27  H    Isotropic =    31.9216   Anisotropy =     7.4945

     28  H    Isotropic =    31.9173   Anisotropy =     6.2344

     29  H    Isotropic =    31.0903   Anisotropy =    10.6402

     30  H    Isotropic =    31.0596   Anisotropy =     7.5170

     31  H    Isotropic =    30.8777   Anisotropy =     8.6501

     32  H    Isotropic =    29.8495   Anisotropy =     9.7778

     33  H    Isotropic =    30.4811   Anisotropy =     5.1442

     34  H    Isotropic =    31.0034   Anisotropy =    10.4619

     35  H    Isotropic =    30.5775   Anisotropy =     7.3964

     36  H    Isotropic =    31.3041   Anisotropy =     9.8545

     37  C    Isotropic =   140.6936   Anisotropy =    35.4778

     38  C    Isotropic =    45.0241   Anisotropy =   179.4045

     39  C    Isotropic =    64.9635   Anisotropy =   141.6235

     40  H    Isotropic =    29.6279   Anisotropy =     5.6823

     41  H    Isotropic =    29.8771   Anisotropy =     5.4887

     42  H    Isotropic =    25.6845   Anisotropy =     7.7448

     43  H    Isotropic =    26.6704   Anisotropy =     7.2038

     44  H    Isotropic =    26.7540   Anisotropy =     7.4967

 The electronic state is 1-A.
 Alpha  occ. eigenvalues --  -66.27055 -19.26082 -19.21427 -19.20136 -10.37327
 Alpha  occ. eigenvalues --  -10.32339 -10.30205 -10.25638 -10.25250 -10.24393
 Alpha  occ. eigenvalues --  -10.24364 -10.22985 -10.22880 -10.22802 -10.21567
 Alpha  occ. eigenvalues --  -10.20942 -10.20557 -10.20242  -5.32880  -3.66729
 Alpha  occ. eigenvalues --   -3.66494  -3.66458  -1.13430  -1.04901  -1.04263
 Alpha  occ. eigenvalues --   -0.85778  -0.82869  -0.80899  -0.77987  -0.74018
 Alpha  occ. eigenvalues --   -0.72881  -0.71590  -0.70249  -0.69815  -0.67098
 Alpha  occ. eigenvalues --   -0.64184  -0.61451  -0.58042  -0.54980  -0.54151
 Alpha  occ. eigenvalues --   -0.52484  -0.50923  -0.49812  -0.49056  -0.47530
 Alpha  occ. eigenvalues --   -0.46479  -0.45183  -0.44251  -0.44076  -0.43334
 Alpha  occ. eigenvalues --   -0.42960  -0.42618  -0.42373  -0.41761  -0.41305
 Alpha  occ. eigenvalues --   -0.40740  -0.40385  -0.40040  -0.39587  -0.39498
 Alpha  occ. eigenvalues --   -0.38635  -0.37589  -0.37054  -0.36633  -0.35966
 Alpha  occ. eigenvalues --   -0.35402  -0.34282  -0.33109  -0.31941  -0.30687
 Alpha  occ. eigenvalues --   -0.29932  -0.29600  -0.28715  -0.26986
 Alpha virt. eigenvalues --   -0.00674   0.00903   0.03782   0.05725   0.06315
 Alpha virt. eigenvalues --    0.06462   0.06892   0.07854   0.08779   0.09189
 Alpha virt. eigenvalues --    0.09290   0.09669   0.10793   0.11357   0.11537

 Mulliken charges:
               1
     1  C   -0.066242
     2  C   -0.281355
     3  C    0.156999
     4  C   -0.607170
     5  C    0.491449
     6  H    0.246772
     7  H    0.258472
     8  H    0.272909
     9  H    0.288305
    10  O   -0.319109
    11  O   -0.384986
    12  C   -0.427327
    13  C   -0.666876
    14  C   -0.682859
    15  O   -0.624399
    16  Si   1.433153
    17  C   -1.087607
    18  C   -1.073427
    19  C   -1.046897
    20  H    0.236011
    21  H    0.246732
    22  H    0.248850
    23  H    0.236959
    24  H    0.236173
    25  H    0.234876
    26  H    0.248644
    27  H    0.248427
    28  H    0.246881
    29  H    0.240667
    30  H    0.235803
    31  H    0.249274
    32  H    0.257515
    33  H    0.228912
    34  H    0.225079
    35  H    0.234083
    36  H    0.218312
    37  C   -0.516659
    38  C   -0.179143
    39  C   -0.455263
    40  H    0.272665
    41  H    0.249440
    42  H    0.226863
    43  H    0.226876
    44  H    0.222219
 Sum of Mulliken charges =   0.00000

 Dipole moment (field-independent basis, Debye):
    X=             -2.7939    Y=              3.4531    Z=              1.9680  Tot=              4.8583
 Quadrupole moment (field-independent basis, Debye-Ang):
   XX=           -124.9553   YY=           -117.6563   ZZ=           -122.8194
   XY=              9.4787   XZ=              9.1279   YZ=             -6.8910

 Normal termination of Gaussian 09 at Thu Mar  8 13:19:34 2018.
