 Gaussian 09, Revision D.01,
 Gaussian 09:  EM64L-G09RevD.01 24-Apr-2013

 --------------------------------------------------------
 #mPW1PW91/6-311g(d) nmr=(giao) scrf=(solvent=chloroform)
 --------------------------------------------------------

 -------------
 P_ng_2ginp012
 -------------
 Symbolic Z-matrix:
 Charge =  0 Multiplicity = 1

                         Standard orientation:
 ---------------------------------------------------------------------
 Center     Atomic      Atomic             Coordinates (Angstroms)
 Number     Number       Type             X           Y           Z
 ---------------------------------------------------------------------
      1          6           0        2.140282   -0.099396    0.506315
      2          6           0        0.665823    0.193625    0.827850
      3          6           0       -0.159587    0.238732   -0.488329
      4          6           0       -0.012916   -1.139045   -1.150100
      5          6           0        1.414298   -1.547328   -1.364628
      6          1           0        2.602415    0.771829    0.026899
      7          1           0        0.287706   -0.660322    1.404854
      8          1           0       -0.464481   -1.933208   -0.546665
      9          1           0       -0.529020   -1.147358   -2.118228
     10          8           0        2.305124   -1.207572   -0.411546
     11          8           0        1.740409   -2.256743   -2.311230
     12          6           0        2.964396   -0.432589    1.763518
     13          6           0        4.434185   -0.690286    1.450347
     14          6           0        0.499226    1.409611    1.747830
     15          8           0       -1.533016    0.606372   -0.235358
     16         14           0       -2.798154   -0.319582    0.342229
     17          6           0       -2.344897   -1.362975    1.832730
     18          6           0       -4.194049    0.839031    0.880083
     19          6           0       -3.494677   -1.439936   -0.997454
     20          1           0       -3.848519    1.504665    1.676344
     21          1           0       -4.526986    1.449999    0.036118
     22          1           0       -5.046838    0.263828    1.251954
     23          1           0       -3.738369   -0.859944   -1.892431
     24          1           0       -2.779691   -2.218338   -1.276308
     25          1           0       -4.408257   -1.930219   -0.647882
     26          1           0       -1.611490   -2.131167    1.573343
     27          1           0       -1.928014   -0.740276    2.629684
     28          1           0       -3.231730   -1.867918    2.227891
     29          1           0        0.789206    1.153442    2.772829
     30          1           0        1.129289    2.247779    1.439785
     31          1           0       -0.537517    1.753781    1.796588
     32          1           0        2.555829   -1.329492    2.244637
     33          1           0        2.909594    0.386753    2.487377
     34          1           0        4.988120   -0.877116    2.375918
     35          1           0        4.560145   -1.564606    0.804424
     36          1           0        4.885480    0.174523    0.953765
     37          6           0        0.333091    1.301512   -1.538304
     38          6           0        0.288017    2.742304   -1.104585
     39          6           0        1.325810    3.585667   -1.178387
     40          1           0       -0.324261    1.235582   -2.417287
     41          1           0        1.339767    1.059102   -1.898155
     42          1           0       -0.667451    3.108540   -0.731520
     43          1           0        1.221656    4.619263   -0.861443
     44          1           0        2.293429    3.275003   -1.559951
 ---------------------------------------------------------------------

 SCF Done:  E(RmPW1PW91) =  -1064.37592474     A.U. after   13 cycles

      1  C    Isotropic =   101.9213   Anisotropy =    48.9833

      2  C    Isotropic =   140.6736   Anisotropy =    22.5879

      3  C    Isotropic =   105.3627   Anisotropy =    58.5493

      4  C    Isotropic =   138.3223   Anisotropy =    26.6114

      5  C    Isotropic =     9.7002   Anisotropy =    93.4333

      6  H    Isotropic =    28.0328   Anisotropy =     2.4703

      7  H    Isotropic =    30.0142   Anisotropy =     5.5162

      8  H    Isotropic =    29.5197   Anisotropy =     4.7980

      9  H    Isotropic =    29.3271   Anisotropy =     4.8424

     10  O    Isotropic =   106.1849   Anisotropy =   192.7068

     11  O    Isotropic =  -128.5731   Anisotropy =   581.0658

     12  C    Isotropic =   156.4652   Anisotropy =    24.8741

     13  C    Isotropic =   175.0352   Anisotropy =    21.5286

     14  C    Isotropic =   174.9639   Anisotropy =    13.3570

     15  O    Isotropic =   248.8453   Anisotropy =    21.5212

     16  Si   Isotropic =   335.1724   Anisotropy =    52.0872

     17  C    Isotropic =   185.6148   Anisotropy =     7.6015

     18  C    Isotropic =   186.4566   Anisotropy =    13.1400

     19  C    Isotropic =   184.4848   Anisotropy =    12.4665

     20  H    Isotropic =    31.9598   Anisotropy =     8.2619

     21  H    Isotropic =    31.9182   Anisotropy =     8.9758

     22  H    Isotropic =    32.3384   Anisotropy =     9.6817

     23  H    Isotropic =    31.9102   Anisotropy =     8.3235

     24  H    Isotropic =    32.0154   Anisotropy =     6.6930

     25  H    Isotropic =    32.2966   Anisotropy =    10.1728

     26  H    Isotropic =    32.0867   Anisotropy =     6.1541

     27  H    Isotropic =    31.9588   Anisotropy =     6.7162

     28  H    Isotropic =    32.1772   Anisotropy =    10.6755

     29  H    Isotropic =    31.3526   Anisotropy =     9.2672

     30  H    Isotropic =    31.0890   Anisotropy =     8.4195

     31  H    Isotropic =    30.5635   Anisotropy =     5.9123

     32  H    Isotropic =    30.6080   Anisotropy =     5.3447

     33  H    Isotropic =    30.2025   Anisotropy =     5.4078

     34  H    Isotropic =    30.9855   Anisotropy =    11.3285

     35  H    Isotropic =    30.5193   Anisotropy =     8.0167

     36  H    Isotropic =    31.2110   Anisotropy =     8.9938

     37  C    Isotropic =   138.0290   Anisotropy =    33.4952

     38  C    Isotropic =    40.4488   Anisotropy =   188.1043

     39  C    Isotropic =    67.1799   Anisotropy =   138.5854

     40  H    Isotropic =    29.5064   Anisotropy =     5.3531

     41  H    Isotropic =    29.7057   Anisotropy =     5.6275

     42  H    Isotropic =    25.4055   Anisotropy =     7.7381

     43  H    Isotropic =    26.9069   Anisotropy =     6.9600

     44  H    Isotropic =    26.8116   Anisotropy =     7.0757

 The electronic state is 1-A.
 Alpha  occ. eigenvalues --  -66.27076 -19.26446 -19.21438 -19.20151 -10.37600
 Alpha  occ. eigenvalues --  -10.32275 -10.30956 -10.25505 -10.25461 -10.24428
 Alpha  occ. eigenvalues --  -10.24123 -10.23904 -10.22636 -10.22466 -10.21997
 Alpha  occ. eigenvalues --  -10.20959 -10.20649 -10.20543  -5.32910  -3.66761
 Alpha  occ. eigenvalues --   -3.66524  -3.66488  -1.13587  -1.05023  -1.04250
 Alpha  occ. eigenvalues --   -0.86135  -0.83432  -0.80846  -0.78078  -0.74252
 Alpha  occ. eigenvalues --   -0.72703  -0.71789  -0.70434  -0.70014  -0.66584
 Alpha  occ. eigenvalues --   -0.63944  -0.61996  -0.58767  -0.56902  -0.53459
 Alpha  occ. eigenvalues --   -0.52891  -0.50729  -0.49323  -0.48213  -0.47362
 Alpha  occ. eigenvalues --   -0.46942  -0.45168  -0.45035  -0.44476  -0.43625
 Alpha  occ. eigenvalues --   -0.42889  -0.42577  -0.41825  -0.41749  -0.41218
 Alpha  occ. eigenvalues --   -0.41007  -0.40688  -0.40253  -0.39745  -0.39248
 Alpha  occ. eigenvalues --   -0.38293  -0.37877  -0.37011  -0.36641  -0.36080
 Alpha  occ. eigenvalues --   -0.35717  -0.34622  -0.33155  -0.32505  -0.31532
 Alpha  occ. eigenvalues --   -0.30472  -0.29302  -0.28485  -0.26843
 Alpha virt. eigenvalues --   -0.00505   0.00995   0.03894   0.05327   0.05867
 Alpha virt. eigenvalues --    0.06478   0.07699   0.08004   0.08480   0.08963
 Alpha virt. eigenvalues --    0.09589   0.10114   0.10319   0.10583   0.11327

 Mulliken charges:
               1
     1  C   -0.033846
     2  C   -0.272977
     3  C    0.151348
     4  C   -0.624556
     5  C    0.469532
     6  H    0.253223
     7  H    0.258848
     8  H    0.280319
     9  H    0.280735
    10  O   -0.321337
    11  O   -0.384765
    12  C   -0.452051
    13  C   -0.660169
    14  C   -0.696476
    15  O   -0.624401
    16  Si   1.410765
    17  C   -1.084407
    18  C   -1.042238
    19  C   -1.055883
    20  H    0.237646
    21  H    0.238659
    22  H    0.236060
    23  H    0.242566
    24  H    0.243470
    25  H    0.236757
    26  H    0.246629
    27  H    0.251276
    28  H    0.248763
    29  H    0.238336
    30  H    0.249540
    31  H    0.257545
    32  H    0.230399
    33  H    0.248534
    34  H    0.228115
    35  H    0.237995
    36  H    0.222035
    37  C   -0.488828
    38  C   -0.169809
    39  C   -0.463053
    40  H    0.258977
    41  H    0.245920
    42  H    0.224723
    43  H    0.224862
    44  H    0.221219
 Sum of Mulliken charges =   0.00000

 Dipole moment (field-independent basis, Debye):
    X=             -1.9452    Y=              2.1588    Z=              3.9854  Tot=              4.9323
 Quadrupole moment (field-independent basis, Debye-Ang):
   XX=           -119.8415   YY=           -125.9941   ZZ=           -124.6838
   XY=             11.4355   XZ=              7.6738   YZ=             -7.8977

 Normal termination of Gaussian 09 at Thu Mar  8 13:18:44 2018.
