 Gaussian 09, Revision D.01,
 Gaussian 09:  EM64L-G09RevD.01 24-Apr-2013

 --------------------------------------------------------
 #mPW1PW91/6-311g(d) nmr=(giao) scrf=(solvent=chloroform)
 --------------------------------------------------------

 --------------------
 P_ng_correct1ginp005
 --------------------
 Symbolic Z-matrix:
 Charge =  0 Multiplicity = 1

                         Standard orientation:
 ---------------------------------------------------------------------
 Center     Atomic      Atomic             Coordinates (Angstroms)
 Number     Number       Type             X           Y           Z
 ---------------------------------------------------------------------
      1          6           0       -2.293455   -0.118891   -0.185684
      2          6           0       -1.001066   -0.107231   -1.019647
      3          6           0        0.085725    0.732598   -0.260879
      4          6           0       -0.139336    0.695354    1.267506
      5          6           0       -0.871565   -0.529494    1.729529
      6          1           0       -2.621763    0.898749    0.060048
      7          1           0       -0.649076   -1.143577   -1.061638
      8          1           0        0.800090    0.782706    1.819512
      9          1           0       -0.770224    1.530748    1.600506
     10          8           0       -2.007313   -0.816621    1.049127
     11          8           0       -0.515168   -1.189211    2.698267
     12          6           0       -3.460151   -0.856081   -0.860184
     13          6           0       -4.703481   -0.907754    0.020525
     14          6           0       -1.199078    0.299610   -2.483275
     15          8           0        1.397291    0.329649   -0.709207
     16         14           0        2.329395   -0.978003   -0.241860
     17          6           0        3.776861   -1.124953   -1.463327
     18          6           0        3.093210   -0.742156    1.458629
     19          6           0        1.430069   -2.621509   -0.283486
     20          1           0        3.522068    0.259816    1.552282
     21          1           0        2.351936   -0.878553    2.250114
     22          1           0        3.891896   -1.472263    1.621546
     23          1           0        0.600420   -2.643125    0.427103
     24          1           0        1.035590   -2.823971   -1.283571
     25          1           0        2.113830   -3.435187   -0.022356
     26          1           0        4.371815   -0.207237   -1.455160
     27          1           0        4.422196   -1.964307   -1.189003
     28          1           0        3.399455   -1.288808   -2.476724
     29          1           0       -1.774239   -0.459321   -3.024107
     30          1           0       -1.737393    1.248397   -2.572651
     31          1           0       -0.237922    0.390352   -3.000014
     32          1           0       -3.163770   -1.885681   -1.094343
     33          1           0       -3.729499   -0.362799   -1.799999
     34          1           0       -5.522346   -1.399796   -0.514025
     35          1           0       -4.520136   -1.470426    0.941053
     36          1           0       -5.032741    0.100371    0.291574
     37          6           0        0.004726    2.246028   -0.691955
     38          6           0        0.954885    3.159014    0.047357
     39          6           0        0.577296    4.224278    0.765324
     40          1           0       -1.023860    2.610951   -0.578715
     41          1           0        0.269205    2.345193   -1.752255
     42          1           0        2.015223    2.924207   -0.036013
     43          1           0        1.316398    4.844054    1.264930
     44          1           0       -0.465014    4.508126    0.869853
 ---------------------------------------------------------------------

 SCF Done:  E(RmPW1PW91) =  -1064.37670953     A.U. after   13 cycles

      1  C    Isotropic =   105.4225   Anisotropy =    43.7524

      2  C    Isotropic =   137.4274   Anisotropy =    28.8052

      3  C    Isotropic =   104.2031   Anisotropy =    59.0721

      4  C    Isotropic =   143.0763   Anisotropy =    23.2783

      5  C    Isotropic =     4.9458   Anisotropy =   105.1686

      6  H    Isotropic =    28.3254   Anisotropy =     3.2251

      7  H    Isotropic =    30.1103   Anisotropy =     7.5788

      8  H    Isotropic =    29.3753   Anisotropy =     5.0484

      9  H    Isotropic =    29.5110   Anisotropy =     5.1686

     10  O    Isotropic =    84.7843   Anisotropy =   187.7881

     11  O    Isotropic =  -116.1976   Anisotropy =   585.1272

     12  C    Isotropic =   158.1899   Anisotropy =    20.0157

     13  C    Isotropic =   175.5029   Anisotropy =    21.3362

     14  C    Isotropic =   175.9263   Anisotropy =    11.4585

     15  O    Isotropic =   243.3690   Anisotropy =    23.7405

     16  Si   Isotropic =   334.5760   Anisotropy =    53.9625

     17  C    Isotropic =   185.5115   Anisotropy =    14.1555

     18  C    Isotropic =   185.5321   Anisotropy =    10.7283

     19  C    Isotropic =   185.5886   Anisotropy =     7.4637

     20  H    Isotropic =    32.0138   Anisotropy =     8.0453

     21  H    Isotropic =    31.6794   Anisotropy =     7.1419

     22  H    Isotropic =    32.3110   Anisotropy =    10.3399

     23  H    Isotropic =    32.0092   Anisotropy =     7.8523

     24  H    Isotropic =    32.1294   Anisotropy =     7.0590

     25  H    Isotropic =    32.2622   Anisotropy =    10.5692

     26  H    Isotropic =    31.9740   Anisotropy =     8.8632

     27  H    Isotropic =    32.3772   Anisotropy =     9.5759

     28  H    Isotropic =    32.0837   Anisotropy =     8.4339

     29  H    Isotropic =    31.0924   Anisotropy =     9.0619

     30  H    Isotropic =    31.4057   Anisotropy =     8.2987

     31  H    Isotropic =    30.7544   Anisotropy =     7.5559

     32  H    Isotropic =    30.5220   Anisotropy =     5.3774

     33  H    Isotropic =    30.3392   Anisotropy =     5.8453

     34  H    Isotropic =    30.9648   Anisotropy =    11.4054

     35  H    Isotropic =    30.6059   Anisotropy =     7.9387

     36  H    Isotropic =    31.3098   Anisotropy =     9.2250

     37  C    Isotropic =   137.4368   Anisotropy =    18.7362

     38  C    Isotropic =    42.8606   Anisotropy =   181.5427

     39  C    Isotropic =    65.0848   Anisotropy =   139.3317

     40  H    Isotropic =    30.1540   Anisotropy =     6.4366

     41  H    Isotropic =    29.4179   Anisotropy =     3.7598

     42  H    Isotropic =    25.5951   Anisotropy =     7.3167

     43  H    Isotropic =    26.7055   Anisotropy =     7.0436

     44  H    Isotropic =    26.7873   Anisotropy =     7.3899

 The electronic state is 1-A.
 Alpha  occ. eigenvalues --  -66.26853 -19.26574 -19.21488 -19.20295 -10.37294
 Alpha  occ. eigenvalues --  -10.32509 -10.30955 -10.25600 -10.25515 -10.24205
 Alpha  occ. eigenvalues --  -10.24172 -10.24070 -10.23019 -10.22843 -10.22158
 Alpha  occ. eigenvalues --  -10.20545 -10.20390 -10.20222  -5.32685  -3.66533
 Alpha  occ. eigenvalues --   -3.66303  -3.66260  -1.13694  -1.05267  -1.04264
 Alpha  occ. eigenvalues --   -0.86036  -0.83438  -0.80564  -0.78218  -0.74009
 Alpha  occ. eigenvalues --   -0.72383  -0.72276  -0.70128  -0.69689  -0.66824
 Alpha  occ. eigenvalues --   -0.63449  -0.61972  -0.58699  -0.56863  -0.54587
 Alpha  occ. eigenvalues --   -0.51999  -0.51228  -0.49196  -0.48915  -0.47186
 Alpha  occ. eigenvalues --   -0.46073  -0.45249  -0.44865  -0.44051  -0.43565
 Alpha  occ. eigenvalues --   -0.43022  -0.42592  -0.42216  -0.42059  -0.41271
 Alpha  occ. eigenvalues --   -0.40801  -0.40389  -0.39605  -0.39334  -0.39234
 Alpha  occ. eigenvalues --   -0.38649  -0.38245  -0.37018  -0.36437  -0.36142
 Alpha  occ. eigenvalues --   -0.35778  -0.35453  -0.33513  -0.32352  -0.31483
 Alpha  occ. eigenvalues --   -0.30042  -0.28825  -0.28641  -0.27175
 Alpha virt. eigenvalues --   -0.00181   0.01135   0.04078   0.05042   0.05846
 Alpha virt. eigenvalues --    0.06638   0.07495   0.07759   0.08671   0.08893
 Alpha virt. eigenvalues --    0.10051   0.10374   0.10526   0.10922   0.11274

 Mulliken charges:
               1
     1  C   -0.015024
     2  C   -0.323651
     3  C    0.212027
     4  C   -0.680781
     5  C    0.504886
     6  H    0.240051
     7  H    0.282322
     8  H    0.302242
     9  H    0.299059
    10  O   -0.318820
    11  O   -0.387864
    12  C   -0.461159
    13  C   -0.659819
    14  C   -0.706630
    15  O   -0.614929
    16  Si   1.401444
    17  C   -1.038079
    18  C   -1.077161
    19  C   -1.087449
    20  H    0.241282
    21  H    0.247019
    22  H    0.241081
    23  H    0.255467
    24  H    0.242203
    25  H    0.248749
    26  H    0.235522
    27  H    0.234170
    28  H    0.234969
    29  H    0.246441
    30  H    0.239154
    31  H    0.256467
    32  H    0.236701
    33  H    0.248255
    34  H    0.229785
    35  H    0.239087
    36  H    0.221219
    37  C   -0.505996
    38  C   -0.183017
    39  C   -0.451701
    40  H    0.240821
    41  H    0.262041
    42  H    0.223802
    43  H    0.226326
    44  H    0.219490
 Sum of Mulliken charges =   0.00000

 Dipole moment (field-independent basis, Debye):
    X=             -1.4885    Y=              2.2618    Z=             -3.7654  Tot=              4.6379
 Quadrupole moment (field-independent basis, Debye-Ang):
   XX=           -112.9509   YY=           -119.8231   ZZ=           -129.7546
   XY=             -5.1835   XZ=              6.9309   YZ=              9.7686

 Normal termination of Gaussian 09 at Thu Mar  8 13:19:46 2018.
