 Gaussian 09, Revision D.01,
 Gaussian 09:  EM64L-G09RevD.01 24-Apr-2013

 --------------------------------------------------------
 #mPW1PW91/6-311g(d) nmr=(giao) scrf=(solvent=chloroform)
 --------------------------------------------------------

 -------------
 P_ng_2ginp006
 -------------
 Symbolic Z-matrix:
 Charge =  0 Multiplicity = 1

                         Standard orientation:
 ---------------------------------------------------------------------
 Center     Atomic      Atomic             Coordinates (Angstroms)
 Number     Number       Type             X           Y           Z
 ---------------------------------------------------------------------
      1          6           0       -2.355463    0.341721    0.071550
      2          6           0       -1.161156    0.079819   -0.860452
      3          6           0        0.111055    0.789122   -0.273977
      4          6           0        0.027561    0.920220    1.263109
      5          6           0       -0.841872   -0.120596    1.902771
      6          1           0       -2.496294    1.418160    0.231764
      7          1           0       -0.971144   -0.997485   -0.839378
      8          1           0        1.016761    0.897472    1.727843
      9          1           0       -0.429025    1.874387    1.559700
     10          8           0       -2.071633   -0.264211    1.353960
     11          8           0       -0.501902   -0.748361    2.898264
     12          6           0       -3.704010   -0.228204   -0.397958
     13          6           0       -3.724227   -1.742768   -0.570730
     14          6           0       -1.438710    0.409939   -2.331101
     15          8           0        1.294381    0.135117   -0.780807
     16         14           0        2.043265   -1.267242   -0.260631
     17          6           0        2.991539   -1.020158    1.342614
     18          6           0        0.890807   -2.732686   -0.067776
     19          6           0        3.326667   -1.760393   -1.571472
     20          1           0        0.379699   -2.952450   -1.009742
     21          1           0        1.455647   -3.624072    0.222338
     22          1           0        0.136330   -2.551774    0.701483
     23          1           0        2.834137   -1.943568   -2.530700
     24          1           0        4.059888   -0.959313   -1.701459
     25          1           0        3.851151   -2.670464   -1.266654
     26          1           0        3.673121   -1.858818    1.514636
     27          1           0        3.583936   -0.101451    1.301633
     28          1           0        2.315715   -0.960170    2.199450
     29          1           0       -0.533870    0.293972   -2.936823
     30          1           0       -2.187033   -0.268210   -2.753080
     31          1           0       -1.816118    1.429924   -2.454584
     32          1           0       -4.016428    0.252227   -1.331462
     33          1           0       -4.463559    0.023383    0.353464
     34          1           0       -3.459622   -2.254779    0.359540
     35          1           0       -4.728490   -2.071190   -0.857836
     36          1           0       -3.033161   -2.070660   -1.352070
     37          6           0        0.235105    2.253102   -0.843730
     38          6           0        1.384507    3.051606   -0.274104
     39          6           0        1.251774    4.221941    0.362713
     40          1           0       -0.706275    2.794501   -0.686527
     41          1           0        0.412614    2.217103   -1.925945
     42          1           0        2.380811    2.635004   -0.416294
     43          1           0        2.124233    4.747887    0.739794
     44          1           0        0.283033    4.685426    0.519659
 ---------------------------------------------------------------------

 SCF Done:  E(RmPW1PW91) =  -1064.37593318     A.U. after   13 cycles

      1  C    Isotropic =   108.0712   Anisotropy =    54.6848

      2  C    Isotropic =   141.8710   Anisotropy =    21.7200

      3  C    Isotropic =   104.0909   Anisotropy =    59.1709

      4  C    Isotropic =   143.0225   Anisotropy =    22.9739

      5  C    Isotropic =     5.0718   Anisotropy =   105.2802

      6  H    Isotropic =    27.9956   Anisotropy =     2.8764

      7  H    Isotropic =    29.9738   Anisotropy =     6.5709

      8  H    Isotropic =    29.3754   Anisotropy =     4.9676

      9  H    Isotropic =    29.5152   Anisotropy =     5.4283

     10  O    Isotropic =    87.1977   Anisotropy =   193.5865

     11  O    Isotropic =  -116.8477   Anisotropy =   586.4241

     12  C    Isotropic =   161.4388   Anisotropy =    20.6290

     13  C    Isotropic =   180.6991   Anisotropy =    11.9315

     14  C    Isotropic =   176.3864   Anisotropy =    12.7102

     15  O    Isotropic =   243.0866   Anisotropy =    23.2135

     16  Si   Isotropic =   334.2849   Anisotropy =    53.7041

     17  C    Isotropic =   185.6055   Anisotropy =    10.7541

     18  C    Isotropic =   185.5893   Anisotropy =     7.9576

     19  C    Isotropic =   185.6149   Anisotropy =    14.0562

     20  H    Isotropic =    32.1083   Anisotropy =     6.9584

     21  H    Isotropic =    32.2414   Anisotropy =    10.5468

     22  H    Isotropic =    31.9770   Anisotropy =     7.7999

     23  H    Isotropic =    32.0892   Anisotropy =     8.4099

     24  H    Isotropic =    31.9719   Anisotropy =     8.9370

     25  H    Isotropic =    32.3778   Anisotropy =     9.5605

     26  H    Isotropic =    32.3131   Anisotropy =    10.3169

     27  H    Isotropic =    32.0095   Anisotropy =     8.1385

     28  H    Isotropic =    31.6732   Anisotropy =     7.1143

     29  H    Isotropic =    30.7307   Anisotropy =     7.7281

     30  H    Isotropic =    31.1717   Anisotropy =     8.8180

     31  H    Isotropic =    31.3623   Anisotropy =     8.5816

     32  H    Isotropic =    30.4121   Anisotropy =     7.3656

     33  H    Isotropic =    30.1085   Anisotropy =     9.8378

     34  H    Isotropic =    30.8071   Anisotropy =     7.4579

     35  H    Isotropic =    31.2097   Anisotropy =    11.9709

     36  H    Isotropic =    31.3003   Anisotropy =     5.9620

     37  C    Isotropic =   137.2669   Anisotropy =    18.6855

     38  C    Isotropic =    42.8851   Anisotropy =   181.5528

     39  C    Isotropic =    65.0116   Anisotropy =   139.3687

     40  H    Isotropic =    30.1322   Anisotropy =     6.6444

     41  H    Isotropic =    29.4021   Anisotropy =     3.7786

     42  H    Isotropic =    25.5830   Anisotropy =     7.3998

     43  H    Isotropic =    26.7098   Anisotropy =     7.0784

     44  H    Isotropic =    26.7858   Anisotropy =     7.4559

 The electronic state is 1-A.
 Alpha  occ. eigenvalues --  -66.26859 -19.26527 -19.21497 -19.20281 -10.37264
 Alpha  occ. eigenvalues --  -10.32568 -10.30940 -10.25649 -10.25508 -10.24209
 Alpha  occ. eigenvalues --  -10.24180 -10.24106 -10.23098 -10.22846 -10.22183
 Alpha  occ. eigenvalues --  -10.20551 -10.20392 -10.20215  -5.32689  -3.66538
 Alpha  occ. eigenvalues --   -3.66307  -3.66264  -1.13676  -1.05247  -1.04265
 Alpha  occ. eigenvalues --   -0.86070  -0.83439  -0.80506  -0.77992  -0.73992
 Alpha  occ. eigenvalues --   -0.72739  -0.72274  -0.70134  -0.69688  -0.67254
 Alpha  occ. eigenvalues --   -0.63045  -0.62359  -0.58377  -0.56073  -0.54603
 Alpha  occ. eigenvalues --   -0.52619  -0.51688  -0.49055  -0.48691  -0.46698
 Alpha  occ. eigenvalues --   -0.46057  -0.45706  -0.45056  -0.44452  -0.43104
 Alpha  occ. eigenvalues --   -0.42951  -0.42612  -0.42221  -0.42086  -0.41298
 Alpha  occ. eigenvalues --   -0.41115  -0.40272  -0.39781  -0.39304  -0.38827
 Alpha  occ. eigenvalues --   -0.38457  -0.37993  -0.37799  -0.36576  -0.36252
 Alpha  occ. eigenvalues --   -0.35698  -0.35106  -0.33450  -0.32418  -0.31370
 Alpha  occ. eigenvalues --   -0.30041  -0.28817  -0.28683  -0.27192
 Alpha virt. eigenvalues --   -0.00192   0.01133   0.03915   0.05063   0.05620
 Alpha virt. eigenvalues --    0.06713   0.07381   0.08085   0.08566   0.08765
 Alpha virt. eigenvalues --    0.10060   0.10463   0.10621   0.10814   0.11324

 Mulliken charges:
               1
     1  C   -0.011008
     2  C   -0.352359
     3  C    0.218813
     4  C   -0.679592
     5  C    0.503710
     6  H    0.244375
     7  H    0.296931
     8  H    0.302132
     9  H    0.298663
    10  O   -0.317965
    11  O   -0.387859
    12  C   -0.464255
    13  C   -0.672231
    14  C   -0.703655
    15  O   -0.615481
    16  Si   1.399708
    17  C   -1.077340
    18  C   -1.092122
    19  C   -1.037884
    20  H    0.242298
    21  H    0.249353
    22  H    0.258657
    23  H    0.234943
    24  H    0.235498
    25  H    0.234248
    26  H    0.241080
    27  H    0.241190
    28  H    0.247339
    29  H    0.256391
    30  H    0.246559
    31  H    0.240296
    32  H    0.245111
    33  H    0.241893
    34  H    0.242101
    35  H    0.232945
    36  H    0.226757
    37  C   -0.507645
    38  C   -0.183142
    39  C   -0.451296
    40  H    0.240904
    41  H    0.262158
    42  H    0.223838
    43  H    0.226366
    44  H    0.219579
 Sum of Mulliken charges =   0.00000

 Dipole moment (field-independent basis, Debye):
    X=             -1.4673    Y=              2.1478    Z=             -3.8136  Tot=              4.6163
 Quadrupole moment (field-independent basis, Debye-Ang):
   XX=           -112.7498   YY=           -116.4959   ZZ=           -132.8902
   XY=             -4.8526   XZ=              7.0411   YZ=              7.5042

 Normal termination of Gaussian 09 at Thu Mar  8 13:21:11 2018.
