 Gaussian 09, Revision D.01,
 Gaussian 09:  EM64L-G09RevD.01 24-Apr-2013

 --------------------------------------------------------
 #mPW1PW91/6-311g(d) nmr=(giao) scrf=(solvent=chloroform)
 --------------------------------------------------------

 --------------------
 P_ng_correct1ginp003
 --------------------
 Symbolic Z-matrix:
 Charge =  0 Multiplicity = 1

                         Standard orientation:
 ---------------------------------------------------------------------
 Center     Atomic      Atomic             Coordinates (Angstroms)
 Number     Number       Type             X           Y           Z
 ---------------------------------------------------------------------
      1          6           0       -2.402190    0.103103   -0.314574
      2          6           0       -1.028721    0.356129   -0.952472
      3          6           0        0.114789    0.020311    0.057168
      4          6           0       -0.065205   -1.470199    0.377325
      5          6           0       -1.428956   -1.826145    0.886211
      6          1           0       -2.612032    0.871629    0.439140
      7          1           0       -0.908233   -0.350506   -1.788840
      8          1           0        0.121073   -2.087634   -0.510105
      9          1           0        0.658024   -1.784062    1.139152
     10          8           0       -2.482627   -1.168937    0.368368
     11          8           0       -1.589300   -2.748042    1.680802
     12          6           0       -3.548126    0.132247   -1.342821
     13          6           0       -4.915650   -0.086478   -0.704732
     14          6           0       -0.941150    1.748031   -1.596857
     15          8           0        1.336553    0.275775   -0.671829
     16         14           0        2.885117   -0.280977   -0.372019
     17          6           0        3.397645   -0.196497    1.428154
     18          6           0        3.101111   -2.051340   -0.972297
     19          6           0        4.104095    0.788714   -1.347565
     20          1           0        2.528930   -2.749436   -0.355453
     21          1           0        2.763659   -2.148190   -2.008327
     22          1           0        4.154340   -2.344024   -0.925417
     23          1           0        5.129085    0.440655   -1.190610
     24          1           0        3.879473    0.741106   -2.416992
     25          1           0        4.036298    1.831366   -1.023903
     26          1           0        3.291573    0.820412    1.816880
     27          1           0        2.795923   -0.870260    2.044237
     28          1           0        4.445840   -0.490915    1.539407
     29          1           0       -1.527747    1.778059   -2.521555
     30          1           0       -1.337787    2.528263   -0.942279
     31          1           0        0.083317    2.013025   -1.873975
     32          1           0       -3.391236   -0.654134   -2.091034
     33          1           0       -3.569031    1.091770   -1.869081
     34          1           0       -5.700608   -0.010958   -1.464066
     35          1           0       -4.991045   -1.076752   -0.245173
     36          1           0       -5.113530    0.667527    0.063686
     37          6           0        0.068753    0.848541    1.384667
     38          6           0        0.285187    2.331557    1.254622
     39          6           0       -0.521319    3.258304    1.788073
     40          1           0        0.850175    0.484438    2.059971
     41          1           0       -0.871854    0.660236    1.915941
     42          1           0        1.166268    2.656062    0.703590
     43          1           0       -0.305168    4.315827    1.666604
     44          1           0       -1.405932    2.992149    2.358330
 ---------------------------------------------------------------------

 SCF Done:  E(RmPW1PW91) =  -1064.37665392     A.U. after   13 cycles

      1  C    Isotropic =   102.3668   Anisotropy =    50.0518

      2  C    Isotropic =   136.8605   Anisotropy =    29.0750

      3  C    Isotropic =   105.9454   Anisotropy =    57.5710

      4  C    Isotropic =   138.0910   Anisotropy =    27.6725

      5  C    Isotropic =    10.4234   Anisotropy =    93.4950

      6  H    Isotropic =    28.0770   Anisotropy =     2.3404

      7  H    Isotropic =    30.0196   Anisotropy =     3.6339

      8  H    Isotropic =    29.4631   Anisotropy =     5.0154

      9  H    Isotropic =    29.4194   Anisotropy =     3.8888

     10  O    Isotropic =   105.6635   Anisotropy =   199.8361

     11  O    Isotropic =  -122.7505   Anisotropy =   578.8341

     12  C    Isotropic =   156.4732   Anisotropy =    25.3877

     13  C    Isotropic =   174.9759   Anisotropy =    21.4016

     14  C    Isotropic =   174.4065   Anisotropy =    14.5535

     15  O    Isotropic =   246.1048   Anisotropy =    20.6388

     16  Si   Isotropic =   333.9635   Anisotropy =    53.9898

     17  C    Isotropic =   185.1589   Anisotropy =     7.0465

     18  C    Isotropic =   184.2692   Anisotropy =    11.7894

     19  C    Isotropic =   186.2602   Anisotropy =    13.0729

     20  H    Isotropic =    31.9868   Anisotropy =     6.6198

     21  H    Isotropic =    31.9882   Anisotropy =     7.8412

     22  H    Isotropic =    32.2758   Anisotropy =    10.2498

     23  H    Isotropic =    32.3197   Anisotropy =     9.7290

     24  H    Isotropic =    31.9278   Anisotropy =     8.6653

     25  H    Isotropic =    31.9433   Anisotropy =     8.4110

     26  H    Isotropic =    31.8972   Anisotropy =     7.0561

     27  H    Isotropic =    31.9386   Anisotropy =     6.5763

     28  H    Isotropic =    32.1394   Anisotropy =    10.5127

     29  H    Isotropic =    31.3540   Anisotropy =     9.9124

     30  H    Isotropic =    31.2175   Anisotropy =     7.6429

     31  H    Isotropic =    30.3975   Anisotropy =     6.2369

     32  H    Isotropic =    30.5772   Anisotropy =     5.7819

     33  H    Isotropic =    30.1841   Anisotropy =     5.6573

     34  H    Isotropic =    30.9872   Anisotropy =    11.3424

     35  H    Isotropic =    30.5061   Anisotropy =     7.9063

     36  H    Isotropic =    31.2156   Anisotropy =     8.8382

     37  C    Isotropic =   143.7016   Anisotropy =    31.9314

     38  C    Isotropic =    41.9960   Anisotropy =   185.6198

     39  C    Isotropic =    66.4277   Anisotropy =   139.6509

     40  H    Isotropic =    29.5340   Anisotropy =     5.8269

     41  H    Isotropic =    29.7064   Anisotropy =     4.8124

     42  H    Isotropic =    25.4964   Anisotropy =     7.2747

     43  H    Isotropic =    26.8763   Anisotropy =     7.0400

     44  H    Isotropic =    26.7755   Anisotropy =     7.0678

 The electronic state is 1-A.
 Alpha  occ. eigenvalues --  -66.27050 -19.26472 -19.21458 -19.20032 -10.37531
 Alpha  occ. eigenvalues --  -10.32266 -10.30784 -10.25413 -10.25270 -10.24735
 Alpha  occ. eigenvalues --  -10.24404 -10.23794 -10.22845 -10.22122 -10.21935
 Alpha  occ. eigenvalues --  -10.20889 -10.20622 -10.20520  -5.32882  -3.66731
 Alpha  occ. eigenvalues --   -3.66496  -3.66462  -1.13653  -1.04963  -1.04228
 Alpha  occ. eigenvalues --   -0.86023  -0.83393  -0.81053  -0.77876  -0.74018
 Alpha  occ. eigenvalues --   -0.72985  -0.71887  -0.70306  -0.69988  -0.66625
 Alpha  occ. eigenvalues --   -0.63925  -0.61851  -0.58943  -0.56583  -0.53629
 Alpha  occ. eigenvalues --   -0.52682  -0.50637  -0.49103  -0.48494  -0.47256
 Alpha  occ. eigenvalues --   -0.46877  -0.45482  -0.44950  -0.44460  -0.43906
 Alpha  occ. eigenvalues --   -0.42929  -0.42604  -0.42193  -0.41629  -0.41173
 Alpha  occ. eigenvalues --   -0.40938  -0.40345  -0.40176  -0.39664  -0.39033
 Alpha  occ. eigenvalues --   -0.38317  -0.37839  -0.36862  -0.36585  -0.35981
 Alpha  occ. eigenvalues --   -0.35620  -0.34656  -0.33495  -0.31750  -0.31423
 Alpha  occ. eigenvalues --   -0.30359  -0.29768  -0.28423  -0.26956
 Alpha virt. eigenvalues --   -0.00311   0.00739   0.03922   0.05546   0.05819
 Alpha virt. eigenvalues --    0.06510   0.07408   0.07845   0.08261   0.09403
 Alpha virt. eigenvalues --    0.09627   0.10121   0.10277   0.10786   0.11276

 Mulliken charges:
               1
     1  C   -0.036021
     2  C   -0.271837
     3  C    0.156834
     4  C   -0.638231
     5  C    0.482273
     6  H    0.248882
     7  H    0.246138
     8  H    0.300388
     9  H    0.263317
    10  O   -0.320459
    11  O   -0.386521
    12  C   -0.450321
    13  C   -0.660248
    14  C   -0.691968
    15  O   -0.627346
    16  Si   1.419092
    17  C   -1.086772
    18  C   -1.060375
    19  C   -1.041218
    20  H    0.243091
    21  H    0.241596
    22  H    0.237829
    23  H    0.235903
    24  H    0.237898
    25  H    0.236972
    26  H    0.250415
    27  H    0.247392
    28  H    0.248560
    29  H    0.237152
    30  H    0.244560
    31  H    0.258259
    32  H    0.229875
    33  H    0.247817
    34  H    0.227925
    35  H    0.237884
    36  H    0.221433
    37  C   -0.497611
    38  C   -0.177009
    39  C   -0.458704
    40  H    0.272415
    41  H    0.253901
    42  H    0.228435
    43  H    0.225797
    44  H    0.222608
 Sum of Mulliken charges =   0.00000

 Dipole moment (field-independent basis, Debye):
    X=              1.7411    Y=              3.3496    Z=             -2.2861  Tot=              4.4133
 Quadrupole moment (field-independent basis, Debye-Ang):
   XX=           -116.6347   YY=           -128.6814   ZZ=           -123.0329
   XY=            -11.3190   XZ=              7.7169   YZ=              8.7703

 Normal termination of Gaussian 09 at Thu Mar  8 13:19:35 2018.
