 Gaussian 09, Revision D.01,
 Gaussian 09:  EM64L-G09RevD.01 24-Apr-2013

 --------------------------------------------------------
 #mPW1PW91/6-311g(d) nmr=(giao) scrf=(solvent=chloroform)
 --------------------------------------------------------

 -------------
 P_ng_4ginp009
 -------------
 Symbolic Z-matrix:
 Charge =  0 Multiplicity = 1

                         Standard orientation:
 ---------------------------------------------------------------------
 Center     Atomic      Atomic             Coordinates (Angstroms)
 Number     Number       Type             X           Y           Z
 ---------------------------------------------------------------------
      1          6           0        2.295786    0.512641   -0.481900
      2          6           0        1.001176    1.215858   -0.949936
      3          6           0       -0.238833    0.763165   -0.117997
      4          6           0        0.116528    0.985615    1.356248
      5          6           0        1.416483    0.358842    1.767890
      6          1           0        3.128541    1.094181   -0.899933
      7          1           0        1.164566    2.282717   -0.741036
      8          1           0        0.208039    2.052867    1.590771
      9          1           0       -0.661446    0.585941    2.011128
     10          8           0        2.465915    0.592416    0.948455
     11          8           0        1.561964   -0.182993    2.858916
     12          6           0        2.506561   -0.948882   -0.919187
     13          6           0        3.916271   -1.440240   -0.600841
     14          6           0        0.808475    1.084733   -2.466409
     15          8           0       -0.412027   -0.635143   -0.412834
     16         14           0       -1.689846   -1.653322   -0.053347
     17          6           0       -3.093134   -1.437949   -1.289661
     18          6           0       -1.087419   -3.440675   -0.207148
     19          6           0       -2.380257   -1.448762    1.675168
     20          1           0       -1.903948   -4.138942   -0.002158
     21          1           0       -0.712256   -3.629026   -1.217207
     22          1           0       -0.278882   -3.630307    0.504766
     23          1           0       -3.169502   -2.184274    1.859313
     24          1           0       -1.599947   -1.599764    2.426862
     25          1           0       -2.812542   -0.454442    1.816803
     26          1           0       -3.579698   -0.466412   -1.169569
     27          1           0       -2.714704   -1.510826   -2.313456
     28          1           0       -3.849650   -2.215353   -1.146755
     29          1           0        1.736915    1.324007   -2.996259
     30          1           0        0.500331    0.076427   -2.758864
     31          1           0        0.046574    1.780999   -2.829641
     32          1           0        2.341750   -1.062569   -1.994711
     33          1           0        1.813501   -1.615682   -0.398480
     34          1           0        4.040855   -2.472185   -0.944378
     35          1           0        4.668752   -0.823523   -1.102420
     36          1           0        4.113351   -1.419207    0.475467
     37          6           0       -1.512777    1.594577   -0.494056
     38          6           0       -1.396745    3.094715   -0.403385
     39          6           0       -2.046317    3.844869    0.496057
     40          1           0       -2.348461    1.275565    0.141325
     41          1           0       -1.827450    1.343381   -1.514887
     42          1           0       -0.769892    3.593499   -1.139945
     43          1           0       -1.937228    4.925757    0.500541
     44          1           0       -2.701327    3.408411    1.244243
 ---------------------------------------------------------------------

 SCF Done:  E(RmPW1PW91) =  -1064.37585771     A.U. after   12 cycles

      1  C    Isotropic =    98.4472   Anisotropy =    47.4277

      2  C    Isotropic =   145.7151   Anisotropy =     9.3197

      3  C    Isotropic =   103.0836   Anisotropy =    53.8631

      4  C    Isotropic =   143.8840   Anisotropy =    21.5200

      5  C    Isotropic =     4.2806   Anisotropy =   110.1753

      6  H    Isotropic =    27.7419   Anisotropy =     4.4061

      7  H    Isotropic =    29.7842   Anisotropy =     6.4749

      8  H    Isotropic =    29.4328   Anisotropy =     5.6540

      9  H    Isotropic =    29.6400   Anisotropy =     4.8118

     10  O    Isotropic =   110.4535   Anisotropy =   197.8075

     11  O    Isotropic =  -157.9774   Anisotropy =   626.5478

     12  C    Isotropic =   158.3557   Anisotropy =    15.3614

     13  C    Isotropic =   173.5983   Anisotropy =    24.9801

     14  C    Isotropic =   176.1529   Anisotropy =    15.4069

     15  O    Isotropic =   246.7133   Anisotropy =    39.8424

     16  Si   Isotropic =   333.7416   Anisotropy =    53.4933

     17  C    Isotropic =   184.2424   Anisotropy =    11.9892

     18  C    Isotropic =   186.3392   Anisotropy =    12.3122

     19  C    Isotropic =   185.1997   Anisotropy =     7.0813

     20  H    Isotropic =    32.3673   Anisotropy =    10.1002

     21  H    Isotropic =    32.0041   Anisotropy =     8.0837

     22  H    Isotropic =    32.0212   Anisotropy =     7.6919

     23  H    Isotropic =    32.1497   Anisotropy =    10.5571

     24  H    Isotropic =    31.7470   Anisotropy =     7.4360

     25  H    Isotropic =    31.8980   Anisotropy =     6.5689

     26  H    Isotropic =    32.0326   Anisotropy =     6.3382

     27  H    Isotropic =    31.9697   Anisotropy =     7.7035

     28  H    Isotropic =    32.3232   Anisotropy =    10.3185

     29  H    Isotropic =    31.3791   Anisotropy =    10.5482

     30  H    Isotropic =    30.8322   Anisotropy =     5.5413

     31  H    Isotropic =    30.8615   Anisotropy =     8.7886

     32  H    Isotropic =    30.4331   Anisotropy =     4.6040

     33  H    Isotropic =    30.0450   Anisotropy =     9.7134

     34  H    Isotropic =    31.0218   Anisotropy =    10.4931

     35  H    Isotropic =    31.4242   Anisotropy =    10.1141

     36  H    Isotropic =    30.5374   Anisotropy =     7.6238

     37  C    Isotropic =   140.6539   Anisotropy =    31.4530

     38  C    Isotropic =    45.5397   Anisotropy =   173.7035

     39  C    Isotropic =    61.8334   Anisotropy =   143.0978

     40  H    Isotropic =    29.9197   Anisotropy =     3.7351

     41  H    Isotropic =    29.3558   Anisotropy =     2.6643

     42  H    Isotropic =    25.9465   Anisotropy =     7.2983

     43  H    Isotropic =    26.7216   Anisotropy =     6.6771

     44  H    Isotropic =    26.7118   Anisotropy =     7.3402

 The electronic state is 1-A.
 Alpha  occ. eigenvalues --  -66.26994 -19.25472 -19.21448 -19.20077 -10.36930
 Alpha  occ. eigenvalues --  -10.32161 -10.30222 -10.25219 -10.24924 -10.24767
 Alpha  occ. eigenvalues --  -10.24712 -10.23520 -10.22734 -10.22720 -10.21447
 Alpha  occ. eigenvalues --  -10.20766 -10.20488 -10.20447  -5.32822  -3.66674
 Alpha  occ. eigenvalues --   -3.66433  -3.66401  -1.13028  -1.04757  -1.04355
 Alpha  occ. eigenvalues --   -0.85742  -0.82986  -0.80632  -0.77708  -0.73867
 Alpha  occ. eigenvalues --   -0.73118  -0.71839  -0.70257  -0.69853  -0.66276
 Alpha  occ. eigenvalues --   -0.63563  -0.62282  -0.58291  -0.56087  -0.53498
 Alpha  occ. eigenvalues --   -0.51650  -0.50443  -0.49086  -0.48630  -0.47763
 Alpha  occ. eigenvalues --   -0.46251  -0.45368  -0.44935  -0.44254  -0.43276
 Alpha  occ. eigenvalues --   -0.42827  -0.42540  -0.42264  -0.41648  -0.41091
 Alpha  occ. eigenvalues --   -0.40985  -0.40322  -0.39787  -0.39529  -0.38811
 Alpha  occ. eigenvalues --   -0.38741  -0.37950  -0.37177  -0.36497  -0.35743
 Alpha  occ. eigenvalues --   -0.35256  -0.34198  -0.33395  -0.31652  -0.30531
 Alpha  occ. eigenvalues --   -0.29936  -0.29341  -0.28956  -0.27240
 Alpha virt. eigenvalues --   -0.00630   0.00590   0.04066   0.05035   0.06054
 Alpha virt. eigenvalues --    0.06960   0.07135   0.07955   0.08871   0.09374
 Alpha virt. eigenvalues --    0.09532   0.09777   0.10619   0.11425   0.11911

 Mulliken charges:
               1
     1  C   -0.044363
     2  C   -0.286451
     3  C    0.148527
     4  C   -0.538307
     5  C    0.476371
     6  H    0.242357
     7  H    0.251239
     8  H    0.286653
     9  H    0.276924
    10  O   -0.327457
    11  O   -0.383865
    12  C   -0.450473
    13  C   -0.659415
    14  C   -0.689868
    15  O   -0.622648
    16  Si   1.434546
    17  C   -1.061247
    18  C   -1.042911
    19  C   -1.090597
    20  H    0.235716
    21  H    0.236025
    22  H    0.240221
    23  H    0.246850
    24  H    0.252875
    25  H    0.245728
    26  H    0.240865
    27  H    0.240375
    28  H    0.236057
    29  H    0.237329
    30  H    0.254246
    31  H    0.240652
    32  H    0.235330
    33  H    0.262510
    34  H    0.224203
    35  H    0.215304
    36  H    0.234407
    37  C   -0.570642
    38  C   -0.186293
    39  C   -0.448353
    40  H    0.249107
    41  H    0.278077
    42  H    0.223490
    43  H    0.230808
    44  H    0.226099
 Sum of Mulliken charges =   0.00000

 Dipole moment (field-independent basis, Debye):
    X=             -2.9730    Y=              2.0971    Z=             -4.2300  Tot=              5.5794
 Quadrupole moment (field-independent basis, Debye-Ang):
   XX=           -121.9513   YY=           -112.0800   ZZ=           -129.6037
   XY=              2.5488   XZ=            -12.9246   YZ=              0.9834

 Normal termination of Gaussian 09 at Thu Mar  8 13:57:23 2018.
