 Gaussian 09, Revision D.01,
 Gaussian 09:  EM64L-G09RevD.01 24-Apr-2013

 --------------------------------------------------------
 #mPW1PW91/6-311g(d) nmr=(giao) scrf=(solvent=chloroform)
 --------------------------------------------------------

 -------------
 P_ng_3ginp004
 -------------
 Symbolic Z-matrix:
 Charge =  0 Multiplicity = 1

                         Standard orientation:
 ---------------------------------------------------------------------
 Center     Atomic      Atomic             Coordinates (Angstroms)
 Number     Number       Type             X           Y           Z
 ---------------------------------------------------------------------
      1          6           0        2.440516   -0.073345    0.045828
      2          6           0        1.145557    0.260139    0.795362
      3          6           0       -0.076758   -0.090172   -0.118096
      4          6           0        0.019903   -1.580627   -0.468393
      5          6           0        1.382424   -2.068363   -0.883934
      6          1           0        2.514411    0.523155   -0.869699
      7          1           0        1.116588    1.333408    1.020190
      8          1           0       -0.305754   -2.201283    0.375028
      9          1           0       -0.652948   -1.807281   -1.302269
     10          8           0        2.466845   -1.454672   -0.369005
     11          8           0        1.504463   -3.065581   -1.590697
     12          6           0        3.743398    0.176431    0.822230
     13          6           0        3.930653    1.621565    1.254380
     14          6           0        1.076981   -0.446260    2.167143
     15          8           0       -1.233992    0.187072    0.702683
     16         14           0       -2.859883    0.028218    0.343837
     17          6           0       -3.546295    1.619108   -0.394483
     18          6           0       -3.281550   -1.381142   -0.815807
     19          6           0       -3.799464   -0.282356    1.957759
     20          1           0       -4.366676   -1.464508   -0.932205
     21          1           0       -2.853815   -1.218538   -1.808968
     22          1           0       -2.913460   -2.334485   -0.426016
     23          1           0       -3.632694    0.540906    2.658345
     24          1           0       -4.873050   -0.364852    1.765454
     25          1           0       -3.455861   -1.210586    2.423327
     26          1           0       -4.633692    1.553917   -0.496339
     27          1           0       -3.312162    2.472085    0.249066
     28          1           0       -3.123330    1.805709   -1.385186
     29          1           0        0.127953   -0.250308    2.675685
     30          1           0        1.197919   -1.530259    2.081397
     31          1           0        1.862603   -0.078489    2.834767
     32          1           0        4.588089   -0.110745    0.181951
     33          1           0        3.811938   -0.489875    1.690022
     34          1           0        4.917365    1.752014    1.710261
     35          1           0        3.862155    2.299096    0.397424
     36          1           0        3.182741    1.922042    1.993551
     37          6           0       -0.091687    0.759276   -1.436439
     38          6           0        0.024003    2.248341   -1.231325
     39          6           0        0.941408    3.021891   -1.825675
     40          1           0       -1.026083    0.582319   -1.981271
     41          1           0        0.701054    0.418271   -2.113736
     42          1           0       -0.694093    2.712094   -0.557317
     43          1           0        0.968682    4.091598   -1.638177
     44          1           0        1.677396    2.618079   -2.514137
 ---------------------------------------------------------------------

 SCF Done:  E(RmPW1PW91) =  -1064.37703597     A.U. after   13 cycles

      1  C    Isotropic =   107.7427   Anisotropy =    60.0859

      2  C    Isotropic =   148.2041   Anisotropy =    21.1725

      3  C    Isotropic =   105.3103   Anisotropy =    56.8016

      4  C    Isotropic =   143.2354   Anisotropy =    37.2854

      5  C    Isotropic =     8.8601   Anisotropy =    95.7233

      6  H    Isotropic =    27.9750   Anisotropy =     2.7333

      7  H    Isotropic =    29.9025   Anisotropy =     4.2352

      8  H    Isotropic =    29.4391   Anisotropy =     4.1893

      9  H    Isotropic =    29.3834   Anisotropy =     4.5699

     10  O    Isotropic =   111.7210   Anisotropy =   186.6994

     11  O    Isotropic =  -130.1402   Anisotropy =   594.7553

     12  C    Isotropic =   159.8874   Anisotropy =    26.2468

     13  C    Isotropic =   178.4921   Anisotropy =    14.7139

     14  C    Isotropic =   179.8796   Anisotropy =    15.4126

     15  O    Isotropic =   244.7923   Anisotropy =    17.5330

     16  Si   Isotropic =   333.8642   Anisotropy =    55.0476

     17  C    Isotropic =   184.6535   Anisotropy =    10.6840

     18  C    Isotropic =   184.6705   Anisotropy =    10.0960

     19  C    Isotropic =   185.8750   Anisotropy =    12.9542

     20  H    Isotropic =    32.1280   Anisotropy =    10.5293

     21  H    Isotropic =    31.9418   Anisotropy =     6.1502

     22  H    Isotropic =    31.8744   Anisotropy =     6.8916

     23  H    Isotropic =    31.9282   Anisotropy =     8.5298

     24  H    Isotropic =    32.3508   Anisotropy =     9.8370

     25  H    Isotropic =    32.0492   Anisotropy =     8.0569

     26  H    Isotropic =    32.2734   Anisotropy =    10.2056

     27  H    Isotropic =    31.9052   Anisotropy =     7.9379

     28  H    Isotropic =    32.0310   Anisotropy =     6.3500

     29  H    Isotropic =    30.6561   Anisotropy =     8.3773

     30  H    Isotropic =    31.4355   Anisotropy =     7.8460

     31  H    Isotropic =    31.1940   Anisotropy =     9.6570

     32  H    Isotropic =    30.1921   Anisotropy =     9.2559

     33  H    Isotropic =    30.3405   Anisotropy =     6.0757

     34  H    Isotropic =    31.0080   Anisotropy =    11.9983

     35  H    Isotropic =    31.3925   Anisotropy =     8.2543

     36  H    Isotropic =    31.3141   Anisotropy =     5.9137

     37  C    Isotropic =   141.0744   Anisotropy =    35.4767

     38  C    Isotropic =    45.3808   Anisotropy =   179.8113

     39  C    Isotropic =    63.9913   Anisotropy =   142.9242

     40  H    Isotropic =    29.4882   Anisotropy =     4.6760

     41  H    Isotropic =    29.6710   Anisotropy =     5.2243

     42  H    Isotropic =    25.7687   Anisotropy =     6.5856

     43  H    Isotropic =    26.6769   Anisotropy =     6.8951

     44  H    Isotropic =    26.7524   Anisotropy =     7.1665

 The electronic state is 1-A.
 Alpha  occ. eigenvalues --  -66.27041 -19.26250 -19.21392 -19.20032 -10.37425
 Alpha  occ. eigenvalues --  -10.32294 -10.30480 -10.25223 -10.25142 -10.25108
 Alpha  occ. eigenvalues --  -10.24641 -10.23703 -10.23251 -10.22565 -10.22259
 Alpha  occ. eigenvalues --  -10.20919 -10.20543 -10.20531  -5.32869  -3.66715
 Alpha  occ. eigenvalues --   -3.66484  -3.66451  -1.13550  -1.04891  -1.04184
 Alpha  occ. eigenvalues --   -0.86035  -0.83287  -0.81127  -0.77487  -0.74027
 Alpha  occ. eigenvalues --   -0.73558  -0.71913  -0.70352  -0.69932  -0.67005
 Alpha  occ. eigenvalues --   -0.63379  -0.62134  -0.58909  -0.54952  -0.53317
 Alpha  occ. eigenvalues --   -0.53076  -0.51516  -0.51141  -0.48149  -0.47406
 Alpha  occ. eigenvalues --   -0.46757  -0.45458  -0.45113  -0.44616  -0.43776
 Alpha  occ. eigenvalues --   -0.42911  -0.42761  -0.41983  -0.41554  -0.40965
 Alpha  occ. eigenvalues --   -0.40525  -0.40298  -0.39715  -0.39414  -0.39269
 Alpha  occ. eigenvalues --   -0.38541  -0.37994  -0.37394  -0.37075  -0.36514
 Alpha  occ. eigenvalues --   -0.35278  -0.34448  -0.33380  -0.31866  -0.31205
 Alpha  occ. eigenvalues --   -0.30417  -0.29617  -0.28470  -0.27459
 Alpha virt. eigenvalues --   -0.00620   0.00449   0.03904   0.05328   0.06178
 Alpha virt. eigenvalues --    0.06317   0.06882   0.07952   0.08360   0.09132
 Alpha virt. eigenvalues --    0.09618   0.10221   0.10594   0.11198   0.11530

 Mulliken charges:
               1
     1  C   -0.033559
     2  C   -0.326031
     3  C    0.205888
     4  C   -0.628971
     5  C    0.476633
     6  H    0.255351
     7  H    0.265497
     8  H    0.298224
     9  H    0.278927
    10  O   -0.312942
    11  O   -0.384111
    12  C   -0.471284
    13  C   -0.669993
    14  C   -0.668953
    15  O   -0.623664
    16  Si   1.397239
    17  C   -1.061221
    18  C   -1.083021
    19  C   -1.038629
    20  H    0.249776
    21  H    0.248306
    22  H    0.251413
    23  H    0.237302
    24  H    0.234277
    25  H    0.235443
    26  H    0.238659
    27  H    0.241844
    28  H    0.243808
    29  H    0.260205
    30  H    0.228496
    31  H    0.241360
    32  H    0.239871
    33  H    0.240893
    34  H    0.236426
    35  H    0.231140
    36  H    0.231935
    37  C   -0.540927
    38  C   -0.176160
    39  C   -0.451250
    40  H    0.261996
    41  H    0.254438
    42  H    0.231697
    43  H    0.229030
    44  H    0.224640
 Sum of Mulliken charges =   0.00000

 Dipole moment (field-independent basis, Debye):
    X=             -1.5917    Y=              4.1242    Z=              1.4701  Tot=              4.6588
 Quadrupole moment (field-independent basis, Debye-Ang):
   XX=           -114.9980   YY=           -132.0552   ZZ=           -122.0127
   XY=             12.5257   XZ=              5.6407   YZ=             -8.4000

 Normal termination of Gaussian 09 at Thu Mar  8 13:22:19 2018.
