 Gaussian 09, Revision D.01,
 Gaussian 09:  EM64L-G09RevD.01 24-Apr-2013

 --------------------------------------------------------
 #mPW1PW91/6-311g(d) nmr=(giao) scrf=(solvent=chloroform)
 --------------------------------------------------------

 -------------
 P_ng_2ginp013
 -------------
 Symbolic Z-matrix:
 Charge =  0 Multiplicity = 1

                         Standard orientation:
 ---------------------------------------------------------------------
 Center     Atomic      Atomic             Coordinates (Angstroms)
 Number     Number       Type             X           Y           Z
 ---------------------------------------------------------------------
      1          6           0        2.339690   -0.648397    0.294137
      2          6           0        0.871675   -0.848883    0.736484
      3          6           0       -0.017094    0.386581    0.433989
      4          6           0        0.271887    0.796242   -1.017364
      5          6           0        1.696965    1.219931   -1.183974
      6          1           0        2.981821   -0.606503    1.182347
      7          1           0        0.463775   -1.685732    0.158710
      8          1           0        0.094589   -0.024184   -1.720740
      9          1           0       -0.375173    1.624954   -1.324518
     10          8           0        2.600909    0.597345   -0.398678
     11          8           0        2.036730    2.072202   -1.996951
     12          6           0        2.866106   -1.771623   -0.617597
     13          6           0        2.918156   -3.139628    0.042380
     14          6           0        0.795195   -1.320590    2.197504
     15          8           0       -1.397473    0.052697    0.707617
     16         14           0       -2.529289   -0.675338   -0.282913
     17          6           0       -3.098780    0.472004   -1.657709
     18          6           0       -1.923448   -2.280422   -1.043444
     19          6           0       -4.054412   -1.095403    0.756031
     20          1           0       -2.723380   -2.754182   -1.620607
     21          1           0       -1.080013   -2.108568   -1.717480
     22          1           0       -1.607203   -2.981385   -0.265312
     23          1           0       -4.821204   -1.568447    0.135822
     24          1           0       -3.785680   -1.782921    1.563218
     25          1           0       -4.474529   -0.187278    1.197871
     26          1           0       -3.974183    0.054711   -2.164527
     27          1           0       -3.372330    1.450500   -1.252197
     28          1           0       -2.315084    0.614898   -2.406281
     29          1           0       -0.241552   -1.477424    2.511342
     30          1           0        1.321858   -2.271449    2.327045
     31          1           0        1.254740   -0.599822    2.881194
     32          1           0        3.875971   -1.506598   -0.956677
     33          1           0        2.257757   -1.825266   -1.529177
     34          1           0        3.501987   -3.106930    0.967521
     35          1           0        1.917672   -3.514838    0.275152
     36          1           0        3.391939   -3.861993   -0.630190
     37          6           0        0.289861    1.558997    1.430972
     38          6           0       -0.417922    2.849166    1.100327
     39          6           0        0.205430    3.988888    0.776325
     40          1           0        1.367779    1.738146    1.513544
     41          1           0       -0.051560    1.279639    2.436504
     42          1           0       -1.505646    2.832550    1.144463
     43          1           0       -0.361495    4.887452    0.551640
     44          1           0        1.288000    4.056259    0.717843
 ---------------------------------------------------------------------

 SCF Done:  E(RmPW1PW91) =  -1064.37448022     A.U. after   13 cycles

      1  C    Isotropic =   101.7455   Anisotropy =    52.8584

      2  C    Isotropic =   142.5172   Anisotropy =    23.3535

      3  C    Isotropic =   104.7623   Anisotropy =    58.5857

      4  C    Isotropic =   144.8744   Anisotropy =    26.8074

      5  C    Isotropic =     9.5568   Anisotropy =    92.6716

      6  H    Isotropic =    28.0153   Anisotropy =     3.2155

      7  H    Isotropic =    30.1200   Anisotropy =     5.0603

      8  H    Isotropic =    29.8197   Anisotropy =     3.8128

      9  H    Isotropic =    29.1670   Anisotropy =     3.4267

     10  O    Isotropic =    95.4927   Anisotropy =   202.9715

     11  O    Isotropic =  -125.2855   Anisotropy =   578.8917

     12  C    Isotropic =   151.9883   Anisotropy =    29.9714

     13  C    Isotropic =   176.9973   Anisotropy =    14.1573

     14  C    Isotropic =   171.3966   Anisotropy =    24.4201

     15  O    Isotropic =   247.7540   Anisotropy =    18.2397

     16  Si   Isotropic =   335.4028   Anisotropy =    52.3564

     17  C    Isotropic =   184.7893   Anisotropy =    11.2128

     18  C    Isotropic =   185.3062   Anisotropy =     6.9761

     19  C    Isotropic =   186.2609   Anisotropy =    13.5208

     20  H    Isotropic =    32.2013   Anisotropy =    10.5633

     21  H    Isotropic =    32.1074   Anisotropy =     6.2592

     22  H    Isotropic =    31.9769   Anisotropy =     6.9653

     23  H    Isotropic =    32.3648   Anisotropy =     9.6541

     24  H    Isotropic =    32.0096   Anisotropy =     8.4443

     25  H    Isotropic =    31.9396   Anisotropy =     8.9765

     26  H    Isotropic =    32.3006   Anisotropy =    10.3214

     27  H    Isotropic =    31.9111   Anisotropy =     8.0813

     28  H    Isotropic =    32.0578   Anisotropy =     6.1996

     29  H    Isotropic =    30.5365   Anisotropy =     7.7785

     30  H    Isotropic =    31.1714   Anisotropy =     8.3587

     31  H    Isotropic =    31.1156   Anisotropy =     8.3158

     32  H    Isotropic =    30.0196   Anisotropy =     8.6809

     33  H    Isotropic =    30.6563   Anisotropy =     4.0254

     34  H    Isotropic =    31.2572   Anisotropy =     8.9904

     35  H    Isotropic =    31.2314   Anisotropy =     5.5271

     36  H    Isotropic =    30.9071   Anisotropy =    11.4119

     37  C    Isotropic =   142.1582   Anisotropy =    23.1281

     38  C    Isotropic =    44.4654   Anisotropy =   179.2373

     39  C    Isotropic =    63.0407   Anisotropy =   142.9126

     40  H    Isotropic =    29.9252   Anisotropy =     6.3112

     41  H    Isotropic =    29.3497   Anisotropy =     4.1807

     42  H    Isotropic =    25.6871   Anisotropy =     6.8176

     43  H    Isotropic =    26.7173   Anisotropy =     6.8991

     44  H    Isotropic =    26.8160   Anisotropy =     7.5005

 The electronic state is 1-A.
 Alpha  occ. eigenvalues --  -66.27049 -19.26390 -19.21422 -19.20049 -10.37425
 Alpha  occ. eigenvalues --  -10.32302 -10.31019 -10.25471 -10.25390 -10.24042
 Alpha  occ. eigenvalues --  -10.24009 -10.23910 -10.22834 -10.22693 -10.22577
 Alpha  occ. eigenvalues --  -10.20972 -10.20647 -10.20548  -5.32884  -3.66733
 Alpha  occ. eigenvalues --   -3.66499  -3.66464  -1.13536  -1.04965  -1.04189
 Alpha  occ. eigenvalues --   -0.86083  -0.83583  -0.80440  -0.78350  -0.74236
 Alpha  occ. eigenvalues --   -0.72886  -0.72226  -0.70458  -0.70014  -0.66698
 Alpha  occ. eigenvalues --   -0.63728  -0.62441  -0.58130  -0.55954  -0.53857
 Alpha  occ. eigenvalues --   -0.53167  -0.50634  -0.49897  -0.48610  -0.47662
 Alpha  occ. eigenvalues --   -0.46404  -0.45335  -0.44681  -0.44514  -0.43090
 Alpha  occ. eigenvalues --   -0.42963  -0.42718  -0.42428  -0.41878  -0.41214
 Alpha  occ. eigenvalues --   -0.40926  -0.40572  -0.40340  -0.39763  -0.39290
 Alpha  occ. eigenvalues --   -0.38551  -0.37945  -0.37700  -0.36448  -0.36068
 Alpha  occ. eigenvalues --   -0.35803  -0.34281  -0.33561  -0.32693  -0.30970
 Alpha  occ. eigenvalues --   -0.30376  -0.29191  -0.28514  -0.27054
 Alpha virt. eigenvalues --   -0.00154   0.01325   0.03491   0.05240   0.05766
 Alpha virt. eigenvalues --    0.06819   0.06863   0.07552   0.08188   0.08357
 Alpha virt. eigenvalues --    0.09609   0.09996   0.10853   0.11020   0.11395

 Mulliken charges:
               1
     1  C   -0.022584
     2  C   -0.314905
     3  C    0.180331
     4  C   -0.655233
     5  C    0.483611
     6  H    0.251690
     7  H    0.283090
     8  H    0.281194
     9  H    0.292225
    10  O   -0.313633
    11  O   -0.383637
    12  C   -0.454239
    13  C   -0.674661
    14  C   -0.688027
    15  O   -0.623705
    16  Si   1.416558
    17  C   -1.063543
    18  C   -1.087115
    19  C   -1.039573
    20  H    0.248831
    21  H    0.245064
    22  H    0.245779
    23  H    0.235592
    24  H    0.237508
    25  H    0.238442
    26  H    0.239157
    27  H    0.244811
    28  H    0.242943
    29  H    0.251815
    30  H    0.245920
    31  H    0.235666
    32  H    0.242828
    33  H    0.231993
    34  H    0.231744
    35  H    0.233507
    36  H    0.239592
    37  C   -0.513589
    38  C   -0.187730
    39  C   -0.446695
    40  H    0.253962
    41  H    0.265125
    42  H    0.220409
    43  H    0.224947
    44  H    0.224534
 Sum of Mulliken charges =   0.00000

 Dipole moment (field-independent basis, Debye):
    X=             -1.7278    Y=             -4.7207    Z=              1.8306  Tot=              5.3499
 Quadrupole moment (field-independent basis, Debye-Ang):
   XX=           -121.0259   YY=           -122.0368   ZZ=           -124.5379
   XY=            -10.3250   XZ=             10.1013   YZ=              6.8260

 Normal termination of Gaussian 09 at Thu Mar  8 13:24:04 2018.
