 Gaussian 09, Revision D.01,
 Gaussian 09:  EM64L-G09RevD.01 24-Apr-2013

 --------------------------------------------------------
 #mPW1PW91/6-311g(d) nmr=(giao) scrf=(solvent=chloroform)
 --------------------------------------------------------

 -------------
 P_ng_2ginp004
 -------------
 Symbolic Z-matrix:
 Charge =  0 Multiplicity = 1

                         Standard orientation:
 ---------------------------------------------------------------------
 Center     Atomic      Atomic             Coordinates (Angstroms)
 Number     Number       Type             X           Y           Z
 ---------------------------------------------------------------------
      1          6           0        2.477046    0.243288    0.058781
      2          6           0        1.150187    0.325337    0.824056
      3          6           0       -0.051284    0.086735   -0.145929
      4          6           0        0.169702   -1.326140   -0.706696
      5          6           0        1.508728   -1.531035   -1.350569
      6          1           0        2.568808    1.110462   -0.606569
      7          1           0        1.109055   -0.504933    1.544436
      8          1           0        0.073052   -2.081011    0.083475
      9          1           0       -0.592314   -1.557758   -1.460169
     10          8           0        2.571544   -0.919256   -0.794547
     11          8           0        1.648376   -2.305653   -2.292577
     12          6           0        3.738517    0.249288    0.941961
     13          6           0        3.829747   -0.919241    1.915257
     14          6           0        1.062951    1.596773    1.679771
     15          8           0       -1.223116    0.162308    0.697152
     16         14           0       -2.763076   -0.431608    0.425881
     17          6           0       -3.419562   -0.106696   -1.298648
     18          6           0       -2.849503   -2.281560    0.759337
     19          6           0       -3.949180    0.407101    1.639027
     20          1           0       -3.888809   -2.623335    0.745442
     21          1           0       -2.298779   -2.845011    0.001410
     22          1           0       -2.424727   -2.514105    1.740203
     23          1           0       -4.966234    0.028156    1.503428
     24          1           0       -3.638792    0.212107    2.669577
     25          1           0       -3.955276    1.488738    1.476243
     26          1           0       -4.458590   -0.440875   -1.379349
     27          1           0       -3.391428    0.961566   -1.532101
     28          1           0       -2.837935   -0.644206   -2.052559
     29          1           0        0.059955    1.751971    2.087816
     30          1           0        1.740616    1.525242    2.537666
     31          1           0        1.353243    2.489174    1.119792
     32          1           0        3.813916    1.190867    1.496423
     33          1           0        4.618176    0.199366    0.287225
     34          1           0        3.048130   -0.867549    2.678468
     35          1           0        3.746675   -1.879547    1.397353
     36          1           0        4.794904   -0.899235    2.431960
     37          6           0       -0.146320    1.107075   -1.328949
     38          6           0       -0.412729    2.539685   -0.955485
     39          6           0        0.307251    3.578273   -1.399158
     40          1           0       -0.964588    0.808477   -1.992667
     41          1           0        0.754335    1.050592   -1.951783
     42          1           0       -1.257729    2.729524   -0.295766
     43          1           0        0.058041    4.592263   -1.099889
     44          1           0        1.151621    3.449083   -2.069165
 ---------------------------------------------------------------------

 SCF Done:  E(RmPW1PW91) =  -1064.37634384     A.U. after   13 cycles

      1  C    Isotropic =   105.3180   Anisotropy =    61.0401

      2  C    Isotropic =   141.8171   Anisotropy =    24.5789

      3  C    Isotropic =   105.8971   Anisotropy =    57.4475

      4  C    Isotropic =   138.1200   Anisotropy =    27.6258

      5  C    Isotropic =     9.3766   Anisotropy =    95.2167

      6  H    Isotropic =    27.7646   Anisotropy =     3.1288

      7  H    Isotropic =    29.8382   Anisotropy =     5.0761

      8  H    Isotropic =    29.4535   Anisotropy =     4.7919

      9  H    Isotropic =    29.4395   Anisotropy =     3.9472

     10  O    Isotropic =   103.4057   Anisotropy =   175.4596

     11  O    Isotropic =  -126.4066   Anisotropy =   582.5665

     12  C    Isotropic =   160.5061   Anisotropy =    22.1735

     13  C    Isotropic =   181.1297   Anisotropy =    11.6208

     14  C    Isotropic =   175.3812   Anisotropy =    13.9606

     15  O    Isotropic =   246.3914   Anisotropy =    21.4513

     16  Si   Isotropic =   334.2270   Anisotropy =    53.9581

     17  C    Isotropic =   185.1962   Anisotropy =     6.9795

     18  C    Isotropic =   184.3544   Anisotropy =    11.6472

     19  C    Isotropic =   186.2080   Anisotropy =    13.1755

     20  H    Isotropic =    32.2860   Anisotropy =    10.2477

     21  H    Isotropic =    31.9869   Anisotropy =     6.6003

     22  H    Isotropic =    31.9795   Anisotropy =     7.7764

     23  H    Isotropic =    32.3256   Anisotropy =     9.7295

     24  H    Isotropic =    31.9131   Anisotropy =     8.6284

     25  H    Isotropic =    31.9271   Anisotropy =     8.4249

     26  H    Isotropic =    32.1482   Anisotropy =    10.4826

     27  H    Isotropic =    31.8859   Anisotropy =     7.0835

     28  H    Isotropic =    31.9407   Anisotropy =     6.5990

     29  H    Isotropic =    30.4372   Anisotropy =     6.4818

     30  H    Isotropic =    31.4490   Anisotropy =     9.6911

     31  H    Isotropic =    31.1979   Anisotropy =     8.2324

     32  H    Isotropic =    30.2846   Anisotropy =     6.8021

     33  H    Isotropic =    30.0703   Anisotropy =     9.4879

     34  H    Isotropic =    31.2504   Anisotropy =     6.7114

     35  H    Isotropic =    31.1045   Anisotropy =     7.5908

     36  H    Isotropic =    31.2108   Anisotropy =    11.9843

     37  C    Isotropic =   143.6661   Anisotropy =    32.7280

     38  C    Isotropic =    42.0792   Anisotropy =   185.5911

     39  C    Isotropic =    66.4266   Anisotropy =   139.8359

     40  H    Isotropic =    29.5252   Anisotropy =     5.8303

     41  H    Isotropic =    29.6962   Anisotropy =     5.0468

     42  H    Isotropic =    25.4847   Anisotropy =     7.3601

     43  H    Isotropic =    26.8665   Anisotropy =     7.1344

     44  H    Isotropic =    26.7757   Anisotropy =     7.2392

 The electronic state is 1-A.
 Alpha  occ. eigenvalues --  -66.27052 -19.26463 -19.21475 -19.20060 -10.37517
 Alpha  occ. eigenvalues --  -10.32303 -10.30711 -10.25428 -10.25243 -10.24729
 Alpha  occ. eigenvalues --  -10.24399 -10.23828 -10.22839 -10.22165 -10.22123
 Alpha  occ. eigenvalues --  -10.20886 -10.20622 -10.20517  -5.32883  -3.66732
 Alpha  occ. eigenvalues --   -3.66497  -3.66463  -1.13642  -1.04976  -1.04238
 Alpha  occ. eigenvalues --   -0.86057  -0.83364  -0.81017  -0.77708  -0.74006
 Alpha  occ. eigenvalues --   -0.73162  -0.72113  -0.70303  -0.69986  -0.66964
 Alpha  occ. eigenvalues --   -0.63116  -0.62589  -0.58854  -0.56008  -0.53603
 Alpha  occ. eigenvalues --   -0.52495  -0.51118  -0.49360  -0.48620  -0.47374
 Alpha  occ. eigenvalues --   -0.46666  -0.45352  -0.44936  -0.44387  -0.43880
 Alpha  occ. eigenvalues --   -0.42842  -0.42612  -0.42555  -0.41787  -0.41208
 Alpha  occ. eigenvalues --   -0.40827  -0.40497  -0.40323  -0.39670  -0.38903
 Alpha  occ. eigenvalues --   -0.37833  -0.37639  -0.37382  -0.36621  -0.36420
 Alpha  occ. eigenvalues --   -0.35560  -0.34516  -0.33501  -0.31837  -0.31296
 Alpha  occ. eigenvalues --   -0.30363  -0.29752  -0.28429  -0.26958
 Alpha virt. eigenvalues --   -0.00368   0.00750   0.03874   0.05496   0.05694
 Alpha virt. eigenvalues --    0.06208   0.07389   0.08240   0.08547   0.09072
 Alpha virt. eigenvalues --    0.09644   0.09987   0.10420   0.10811   0.11495

 Mulliken charges:
               1
     1  C   -0.038221
     2  C   -0.295005
     3  C    0.163739
     4  C   -0.639805
     5  C    0.482139
     6  H    0.253939
     7  H    0.254996
     8  H    0.300866
     9  H    0.263338
    10  O   -0.318339
    11  O   -0.385377
    12  C   -0.455143
    13  C   -0.673811
    14  C   -0.689099
    15  O   -0.627256
    16  Si   1.419680
    17  C   -1.086802
    18  C   -1.060601
    19  C   -1.041003
    20  H    0.237901
    21  H    0.242995
    22  H    0.241536
    23  H    0.235906
    24  H    0.237848
    25  H    0.236937
    26  H    0.248521
    27  H    0.250220
    28  H    0.247444
    29  H    0.257392
    30  H    0.237360
    31  H    0.245681
    32  H    0.245445
    33  H    0.240594
    34  H    0.228003
    35  H    0.235671
    36  H    0.233169
    37  C   -0.498192
    38  C   -0.177155
    39  C   -0.458441
    40  H    0.272581
    41  H    0.253540
    42  H    0.228336
    43  H    0.225760
    44  H    0.222714
 Sum of Mulliken charges =   0.00000

 Dipole moment (field-independent basis, Debye):
    X=             -1.6731    Y=              2.8971    Z=              2.8473  Tot=              4.3931
 Quadrupole moment (field-independent basis, Debye-Ang):
   XX=           -115.9247   YY=           -124.7547   ZZ=           -127.6369
   XY=             10.1454   XZ=              9.2174   YZ=             -9.2050

 Normal termination of Gaussian 09 at Thu Mar  8 13:15:32 2018.
