 Gaussian 09, Revision D.01,
 Gaussian 09:  EM64L-G09RevD.01 24-Apr-2013

 --------------------------------------------------------
 #mPW1PW91/6-311g(d) nmr=(giao) scrf=(solvent=chloroform)
 --------------------------------------------------------

 --------------------
 P_ng_correct1ginp012
 --------------------
 Symbolic Z-matrix:
 Charge =  0 Multiplicity = 1

                         Standard orientation:
 ---------------------------------------------------------------------
 Center     Atomic      Atomic             Coordinates (Angstroms)
 Number     Number       Type             X           Y           Z
 ---------------------------------------------------------------------
      1          6           0        2.140281   -0.099399    0.506317
      2          6           0        0.665823    0.193621    0.827859
      3          6           0       -0.159589    0.238740   -0.488319
      4          6           0       -0.012924   -1.139034   -1.150097
      5          6           0        1.414287   -1.547320   -1.364634
      6          1           0        2.602415    0.771833    0.026917
      7          1           0        0.287707   -0.660331    1.404855
      8          1           0       -0.464487   -1.933200   -0.546663
      9          1           0       -0.529033   -1.147340   -2.118224
     10          8           0        2.305121   -1.207559   -0.411562
     11          8           0        1.740389   -2.256739   -2.311236
     12          6           0        2.964394   -0.432619    1.763513
     13          6           0        4.434183   -0.690308    1.450337
     14          6           0        0.499228    1.409596    1.747854
     15          8           0       -1.533017    0.606386   -0.235342
     16         14           0       -2.798158   -0.319577    0.342224
     17          6           0       -4.194062    0.839030    0.880074
     18          6           0       -3.494666   -1.439923   -0.997475
     19          6           0       -2.344907   -1.362975    1.832724
     20          1           0       -3.738368   -0.859921   -1.892442
     21          1           0       -2.779671   -2.218311   -1.276342
     22          1           0       -4.408238   -1.930224   -0.647910
     23          1           0       -3.231740   -1.867922    2.227878
     24          1           0       -1.611496   -2.131162    1.573339
     25          1           0       -1.928032   -0.740277    2.629683
     26          1           0       -3.848537    1.504668    1.676332
     27          1           0       -4.527003    1.449992    0.036105
     28          1           0       -5.046846    0.263820    1.251946
     29          1           0        0.789228    1.153421    2.772846
     30          1           0        1.129275    2.247776    1.439808
     31          1           0       -0.537518    1.753752    1.796632
     32          1           0        2.555827   -1.329535    2.244609
     33          1           0        2.909589    0.386704    2.487392
     34          1           0        4.988116   -0.877173    2.375903
     35          1           0        4.560143   -1.564606    0.804382
     36          1           0        4.885482    0.174517    0.953787
     37          6           0        0.333090    1.301522   -1.538291
     38          6           0        0.288046    2.742311   -1.104562
     39          6           0        1.325851    3.585657   -1.178389
     40          1           0       -0.324275    1.235607   -2.417265
     41          1           0        1.339758    1.059099   -1.898157
     42          1           0       -0.667408    3.108560   -0.731474
     43          1           0        1.221724    4.619255   -0.861442
     44          1           0        2.293453    3.274975   -1.559979
 ---------------------------------------------------------------------

 SCF Done:  E(RmPW1PW91) =  -1064.37592487     A.U. after   13 cycles

      1  C    Isotropic =   101.9215   Anisotropy =    48.9835

      2  C    Isotropic =   140.6736   Anisotropy =    22.5883

      3  C    Isotropic =   105.3627   Anisotropy =    58.5495

      4  C    Isotropic =   138.3223   Anisotropy =    26.6111

      5  C    Isotropic =     9.7006   Anisotropy =    93.4329

      6  H    Isotropic =    28.0328   Anisotropy =     2.4703

      7  H    Isotropic =    30.0142   Anisotropy =     5.5161

      8  H    Isotropic =    29.5197   Anisotropy =     4.7980

      9  H    Isotropic =    29.3271   Anisotropy =     4.8424

     10  O    Isotropic =   106.1848   Anisotropy =   192.7069

     11  O    Isotropic =  -128.5702   Anisotropy =   581.0622

     12  C    Isotropic =   156.4652   Anisotropy =    24.8743

     13  C    Isotropic =   175.0352   Anisotropy =    21.5287

     14  C    Isotropic =   174.9640   Anisotropy =    13.3577

     15  O    Isotropic =   248.8452   Anisotropy =    21.5217

     16  Si   Isotropic =   335.1723   Anisotropy =    52.0871

     17  C    Isotropic =   186.4566   Anisotropy =    13.1400

     18  C    Isotropic =   184.4848   Anisotropy =    12.4665

     19  C    Isotropic =   185.6149   Anisotropy =     7.6014

     20  H    Isotropic =    31.9102   Anisotropy =     8.3235

     21  H    Isotropic =    32.0154   Anisotropy =     6.6930

     22  H    Isotropic =    32.2966   Anisotropy =    10.1728

     23  H    Isotropic =    32.1772   Anisotropy =    10.6755

     24  H    Isotropic =    32.0867   Anisotropy =     6.1541

     25  H    Isotropic =    31.9588   Anisotropy =     6.7162

     26  H    Isotropic =    31.9598   Anisotropy =     8.2619

     27  H    Isotropic =    31.9182   Anisotropy =     8.9758

     28  H    Isotropic =    32.3384   Anisotropy =     9.6817

     29  H    Isotropic =    31.3526   Anisotropy =     9.2672

     30  H    Isotropic =    31.0890   Anisotropy =     8.4195

     31  H    Isotropic =    30.5635   Anisotropy =     5.9124

     32  H    Isotropic =    30.6080   Anisotropy =     5.3447

     33  H    Isotropic =    30.2025   Anisotropy =     5.4078

     34  H    Isotropic =    30.9855   Anisotropy =    11.3285

     35  H    Isotropic =    30.5192   Anisotropy =     8.0166

     36  H    Isotropic =    31.2110   Anisotropy =     8.9938

     37  C    Isotropic =   138.0288   Anisotropy =    33.4954

     38  C    Isotropic =    40.4490   Anisotropy =   188.1045

     39  C    Isotropic =    67.1799   Anisotropy =   138.5852

     40  H    Isotropic =    29.5064   Anisotropy =     5.3530

     41  H    Isotropic =    29.7056   Anisotropy =     5.6275

     42  H    Isotropic =    25.4055   Anisotropy =     7.7381

     43  H    Isotropic =    26.9069   Anisotropy =     6.9600

     44  H    Isotropic =    26.8116   Anisotropy =     7.0757

 The electronic state is 1-A.
 Alpha  occ. eigenvalues --  -66.27076 -19.26446 -19.21438 -19.20151 -10.37600
 Alpha  occ. eigenvalues --  -10.32275 -10.30956 -10.25505 -10.25461 -10.24428
 Alpha  occ. eigenvalues --  -10.24123 -10.23904 -10.22636 -10.22466 -10.21997
 Alpha  occ. eigenvalues --  -10.20958 -10.20649 -10.20543  -5.32910  -3.66761
 Alpha  occ. eigenvalues --   -3.66524  -3.66488  -1.13587  -1.05023  -1.04250
 Alpha  occ. eigenvalues --   -0.86135  -0.83432  -0.80846  -0.78078  -0.74252
 Alpha  occ. eigenvalues --   -0.72703  -0.71789  -0.70434  -0.70014  -0.66584
 Alpha  occ. eigenvalues --   -0.63944  -0.61996  -0.58767  -0.56902  -0.53459
 Alpha  occ. eigenvalues --   -0.52891  -0.50729  -0.49323  -0.48213  -0.47362
 Alpha  occ. eigenvalues --   -0.46942  -0.45168  -0.45035  -0.44476  -0.43625
 Alpha  occ. eigenvalues --   -0.42889  -0.42577  -0.41825  -0.41749  -0.41218
 Alpha  occ. eigenvalues --   -0.41007  -0.40688  -0.40253  -0.39745  -0.39248
 Alpha  occ. eigenvalues --   -0.38293  -0.37877  -0.37011  -0.36641  -0.36080
 Alpha  occ. eigenvalues --   -0.35717  -0.34622  -0.33156  -0.32505  -0.31532
 Alpha  occ. eigenvalues --   -0.30472  -0.29302  -0.28485  -0.26843
 Alpha virt. eigenvalues --   -0.00504   0.00995   0.03894   0.05327   0.05867
 Alpha virt. eigenvalues --    0.06478   0.07699   0.08004   0.08480   0.08962
 Alpha virt. eigenvalues --    0.09589   0.10114   0.10319   0.10583   0.11327

 Mulliken charges:
               1
     1  C   -0.033844
     2  C   -0.272980
     3  C    0.151349
     4  C   -0.624560
     5  C    0.469533
     6  H    0.253224
     7  H    0.258848
     8  H    0.280320
     9  H    0.280735
    10  O   -0.321337
    11  O   -0.384765
    12  C   -0.452051
    13  C   -0.660170
    14  C   -0.696474
    15  O   -0.624401
    16  Si   1.410765
    17  C   -1.042238
    18  C   -1.055884
    19  C   -1.084407
    20  H    0.242567
    21  H    0.243470
    22  H    0.236757
    23  H    0.248763
    24  H    0.246629
    25  H    0.251276
    26  H    0.237646
    27  H    0.238659
    28  H    0.236060
    29  H    0.238336
    30  H    0.249539
    31  H    0.257545
    32  H    0.230399
    33  H    0.248534
    34  H    0.228116
    35  H    0.237995
    36  H    0.222035
    37  C   -0.488828
    38  C   -0.169808
    39  C   -0.463054
    40  H    0.258977
    41  H    0.245920
    42  H    0.224723
    43  H    0.224862
    44  H    0.221219
 Sum of Mulliken charges =   0.00000

 Dipole moment (field-independent basis, Debye):
    X=             -1.9452    Y=              2.1588    Z=              3.9854  Tot=              4.9323
 Quadrupole moment (field-independent basis, Debye-Ang):
   XX=           -119.8414   YY=           -125.9941   ZZ=           -124.6838
   XY=             11.4354   XZ=              7.6738   YZ=             -7.8978

 Normal termination of Gaussian 09 at Thu Mar  8 13:18:39 2018.
