 Gaussian 09, Revision D.01,
 Gaussian 09:  EM64L-G09RevD.01 24-Apr-2013

 --------------------------------------------------------
 #mPW1PW91/6-311g(d) nmr=(giao) scrf=(solvent=chloroform)
 --------------------------------------------------------

 --------------------
 P_ng_correct1ginp007
 --------------------
 Symbolic Z-matrix:
 Charge =  0 Multiplicity = 1

                         Standard orientation:
 ---------------------------------------------------------------------
 Center     Atomic      Atomic             Coordinates (Angstroms)
 Number     Number       Type             X           Y           Z
 ---------------------------------------------------------------------
      1          6           0        2.393672    0.154259    0.300880
      2          6           0        1.025875    0.345401    0.966043
      3          6           0       -0.116646   -0.091417   -0.006799
      4          6           0        0.135582   -1.583984   -0.269820
      5          6           0        1.526754   -1.923303   -0.717728
      6          1           0        2.521692    0.873042   -0.516921
      7          1           0        0.969179   -0.343575    1.824003
      8          1           0       -0.076969   -2.177894    0.627991
      9          1           0       -0.536355   -1.943987   -1.054847
     10          8           0        2.543544   -1.160121   -0.279987
     11          8           0        1.742180   -2.919682   -1.402938
     12          6           0        3.565929    0.346895    1.280411
     13          6           0        4.924950    0.173461    0.610997
     14          6           0        0.864027    1.745070    1.578381
     15          8           0       -1.327209    0.076825    0.765207
     16         14           0       -2.917471   -0.224068    0.343633
     17          6           0       -3.910726   -0.492982    1.935235
     18          6           0       -3.691132    1.249145   -0.536239
     19          6           0       -3.180182   -1.742013   -0.722936
     20          1           0       -3.542038    2.164533    0.043680
     21          1           0       -3.252294    1.389279   -1.527625
     22          1           0       -4.767084    1.095099   -0.662053
     23          1           0       -2.731228   -1.613353   -1.711753
     24          1           0       -2.749530   -2.631068   -0.253356
     25          1           0       -4.249885   -1.924203   -0.866204
     26          1           0       -3.523386   -1.358055    2.481097
     27          1           0       -3.838254    0.387503    2.580097
     28          1           0       -4.964649   -0.669822    1.702177
     29          1           0        1.449727    1.825567    2.500936
     30          1           0        1.218869    2.531911    0.907962
     31          1           0       -0.172734    1.961387    1.851813
     32          1           0        3.490376   -0.384747    2.093930
     33          1           0        3.533377    1.345609    1.727465
     34          1           0        5.725887    0.365489    1.332155
     35          1           0        5.057804   -0.843208    0.228558
     36          1           0        5.042914    0.874393   -0.221432
     37          6           0       -0.146170    0.671279   -1.373825
     38          6           0       -0.257265    2.169847   -1.311786
     39          6           0        0.551228    3.009905   -1.971256
     40          1           0       -1.001458    0.318809   -1.963102
     41          1           0        0.738030    0.402499   -1.965437
     42          1           0       -1.054004    2.586666   -0.699260
     43          1           0        0.416087    4.084845   -1.891963
     44          1           0        1.357024    2.654682   -2.606387
 ---------------------------------------------------------------------

 SCF Done:  E(RmPW1PW91) =  -1064.37585057     A.U. after   13 cycles

      1  C    Isotropic =   103.3037   Anisotropy =    49.9944

      2  C    Isotropic =   137.5322   Anisotropy =    28.0084

      3  C    Isotropic =   106.0114   Anisotropy =    57.5259

      4  C    Isotropic =   137.6209   Anisotropy =    33.0217

      5  C    Isotropic =    10.2670   Anisotropy =    94.2201

      6  H    Isotropic =    28.0519   Anisotropy =     3.0123

      7  H    Isotropic =    29.9693   Anisotropy =     3.8283

      8  H    Isotropic =    29.6301   Anisotropy =     4.4837

      9  H    Isotropic =    29.2661   Anisotropy =     4.8444

     10  O    Isotropic =   103.9958   Anisotropy =   202.7614

     11  O    Isotropic =  -119.6447   Anisotropy =   574.2865

     12  C    Isotropic =   156.6695   Anisotropy =    24.5438

     13  C    Isotropic =   175.0219   Anisotropy =    21.3047

     14  C    Isotropic =   174.9189   Anisotropy =    13.6085

     15  O    Isotropic =   243.3072   Anisotropy =    30.3628

     16  Si   Isotropic =   334.3371   Anisotropy =    55.3056

     17  C    Isotropic =   185.5664   Anisotropy =    13.5483

     18  C    Isotropic =   184.4818   Anisotropy =    10.0658

     19  C    Isotropic =   184.4651   Anisotropy =     9.6914

     20  H    Isotropic =    31.8478   Anisotropy =     7.7354

     21  H    Isotropic =    32.0293   Anisotropy =     6.3068

     22  H    Isotropic =    32.2489   Anisotropy =    10.1512

     23  H    Isotropic =    31.9367   Anisotropy =     6.2172

     24  H    Isotropic =    31.8611   Anisotropy =     7.2041

     25  H    Isotropic =    32.1329   Anisotropy =    10.3822

     26  H    Isotropic =    32.0663   Anisotropy =     8.4428

     27  H    Isotropic =    31.9189   Anisotropy =     8.4971

     28  H    Isotropic =    32.3456   Anisotropy =     9.6772

     29  H    Isotropic =    31.3058   Anisotropy =    10.0077

     30  H    Isotropic =    31.2211   Anisotropy =     7.3002

     31  H    Isotropic =    30.3968   Anisotropy =     6.3672

     32  H    Isotropic =    30.5941   Anisotropy =     5.8779

     33  H    Isotropic =    30.2043   Anisotropy =     5.6041

     34  H    Isotropic =    30.9877   Anisotropy =    11.3556

     35  H    Isotropic =    30.5095   Anisotropy =     7.9942

     36  H    Isotropic =    31.2272   Anisotropy =     8.7313

     37  C    Isotropic =   142.5845   Anisotropy =    31.6132

     38  C    Isotropic =    42.2288   Anisotropy =   185.9151

     39  C    Isotropic =    65.8725   Anisotropy =   140.3347

     40  H    Isotropic =    29.5162   Anisotropy =     4.5775

     41  H    Isotropic =    29.5794   Anisotropy =     4.7707

     42  H    Isotropic =    25.5496   Anisotropy =     6.5036

     43  H    Isotropic =    26.8360   Anisotropy =     7.0369

     44  H    Isotropic =    26.7698   Anisotropy =     6.9828

 The electronic state is 1-A.
 Alpha  occ. eigenvalues --  -66.27062 -19.26388 -19.21490 -19.19808 -10.37347
 Alpha  occ. eigenvalues --  -10.32259 -10.30690 -10.25250 -10.25177 -10.25064
 Alpha  occ. eigenvalues --  -10.24570 -10.23753 -10.23048 -10.22181 -10.21913
 Alpha  occ. eigenvalues --  -10.20880 -10.20557 -10.20536  -5.32887  -3.66732
 Alpha  occ. eigenvalues --   -3.66502  -3.66469  -1.13574  -1.04784  -1.04229
 Alpha  occ. eigenvalues --   -0.86050  -0.83371  -0.81104  -0.77808  -0.73991
 Alpha  occ. eigenvalues --   -0.73066  -0.71910  -0.70345  -0.69919  -0.66691
 Alpha  occ. eigenvalues --   -0.63840  -0.61909  -0.59060  -0.56650  -0.53226
 Alpha  occ. eigenvalues --   -0.52699  -0.50692  -0.49054  -0.48589  -0.47180
 Alpha  occ. eigenvalues --   -0.46878  -0.45541  -0.44945  -0.44546  -0.43919
 Alpha  occ. eigenvalues --   -0.43048  -0.42558  -0.41915  -0.41746  -0.41120
 Alpha  occ. eigenvalues --   -0.40864  -0.40471  -0.40058  -0.39716  -0.39201
 Alpha  occ. eigenvalues --   -0.38364  -0.37815  -0.36918  -0.36496  -0.35859
 Alpha  occ. eigenvalues --   -0.35580  -0.34686  -0.33581  -0.31633  -0.31348
 Alpha  occ. eigenvalues --   -0.30370  -0.29688  -0.28305  -0.27137
 Alpha virt. eigenvalues --   -0.00220   0.00558   0.03935   0.05759   0.05879
 Alpha virt. eigenvalues --    0.06470   0.07079   0.07963   0.08392   0.09195
 Alpha virt. eigenvalues --    0.09740   0.10160   0.10348   0.10790   0.11063

 Mulliken charges:
               1
     1  C   -0.032117
     2  C   -0.273368
     3  C    0.168904
     4  C   -0.613795
     5  C    0.482357
     6  H    0.250809
     7  H    0.248326
     8  H    0.291752
     9  H    0.277136
    10  O   -0.318932
    11  O   -0.390284
    12  C   -0.452252
    13  C   -0.660186
    14  C   -0.702040
    15  O   -0.621577
    16  Si   1.397740
    17  C   -1.038573
    18  C   -1.065147
    19  C   -1.082107
    20  H    0.241738
    21  H    0.245904
    22  H    0.241813
    23  H    0.248051
    24  H    0.249967
    25  H    0.248747
    26  H    0.236162
    27  H    0.236901
    28  H    0.234073
    29  H    0.238750
    30  H    0.243497
    31  H    0.260197
    32  H    0.229908
    33  H    0.248207
    34  H    0.227818
    35  H    0.237839
    36  H    0.221058
    37  C   -0.534580
    38  C   -0.170559
    39  C   -0.457526
    40  H    0.261953
    41  H    0.256430
    42  H    0.235872
    43  H    0.227255
    44  H    0.223879
 Sum of Mulliken charges =   0.00000

 Dipole moment (field-independent basis, Debye):
    X=             -1.9681    Y=              3.8456    Z=              1.7181  Tot=              4.6490
 Quadrupole moment (field-independent basis, Debye-Ang):
   XX=           -118.3499   YY=           -129.4565   ZZ=           -121.6001
   XY=             12.6186   XZ=              7.2595   YZ=             -7.5752

 Normal termination of Gaussian 09 at Thu Mar  8 13:18:43 2018.
