 Gaussian 09, Revision D.01,
 Gaussian 09:  EM64L-G09RevD.01 24-Apr-2013

 --------------------------------------------------------
 #mPW1PW91/6-311g(d) nmr=(giao) scrf=(solvent=chloroform)
 --------------------------------------------------------

 -------------
 P_ng_2ginp007
 -------------
 Symbolic Z-matrix:
 Charge =  0 Multiplicity = 1

                         Standard orientation:
 ---------------------------------------------------------------------
 Center     Atomic      Atomic             Coordinates (Angstroms)
 Number     Number       Type             X           Y           Z
 ---------------------------------------------------------------------
      1          6           0        2.393670    0.154265    0.300879
      2          6           0        1.025873    0.345404    0.966044
      3          6           0       -0.116646   -0.091418   -0.006794
      4          6           0        0.135582   -1.583985   -0.269812
      5          6           0        1.526753   -1.923301   -0.717727
      6          1           0        2.521691    0.873055   -0.516916
      7          1           0        0.969180   -0.343572    1.824006
      8          1           0       -0.076962   -2.177893    0.628003
      9          1           0       -0.536358   -1.943994   -1.054833
     10          8           0        2.543542   -1.160110   -0.280000
     11          8           0        1.742177   -2.919684   -1.402931
     12          6           0        3.565926    0.346894    1.280412
     13          6           0        4.924945    0.173450    0.611001
     14          6           0        0.864023    1.745073    1.578382
     15          8           0       -1.327208    0.076819    0.765215
     16         14           0       -2.917469   -0.224067    0.343635
     17          6           0       -3.910692   -0.493215    1.935213
     18          6           0       -3.691172    1.249247   -0.536032
     19          6           0       -3.180168   -1.741870   -0.723137
     20          1           0       -3.542076    2.164563    0.043997
     21          1           0       -3.252361    1.389510   -1.527411
     22          1           0       -4.767127    1.095203   -0.661838
     23          1           0       -2.731178   -1.613094   -1.711922
     24          1           0       -2.749548   -2.630993   -0.253655
     25          1           0       -4.249870   -1.924024   -0.866464
     26          1           0       -3.523285   -1.358316    2.480985
     27          1           0       -3.838280    0.387210    2.580165
     28          1           0       -4.964603   -0.670107    1.702145
     29          1           0        1.449719    1.825571    2.500939
     30          1           0        1.218869    2.531913    0.907964
     31          1           0       -0.172738    1.961391    1.851809
     32          1           0        3.490367   -0.384747    2.093931
     33          1           0        3.533378    1.345609    1.727466
     34          1           0        5.725885    0.365463    1.332159
     35          1           0        5.057783   -0.843219    0.228557
     36          1           0        5.042920    0.874384   -0.221424
     37          6           0       -0.146175    0.671277   -1.373821
     38          6           0       -0.257259    2.169845   -1.311786
     39          6           0        0.551237    3.009893   -1.971264
     40          1           0       -1.001469    0.318815   -1.963094
     41          1           0        0.738020    0.402491   -1.965438
     42          1           0       -1.053993    2.586672   -0.699258
     43          1           0        0.416107    4.084835   -1.891975
     44          1           0        1.357027    2.654659   -2.606397
 ---------------------------------------------------------------------

 SCF Done:  E(RmPW1PW91) =  -1064.37585062     A.U. after   13 cycles

      1  C    Isotropic =   103.3038   Anisotropy =    49.9949

      2  C    Isotropic =   137.5321   Anisotropy =    28.0087

      3  C    Isotropic =   106.0117   Anisotropy =    57.5257

      4  C    Isotropic =   137.6210   Anisotropy =    33.0227

      5  C    Isotropic =    10.2672   Anisotropy =    94.2196

      6  H    Isotropic =    28.0519   Anisotropy =     3.0123

      7  H    Isotropic =    29.9693   Anisotropy =     3.8283

      8  H    Isotropic =    29.6301   Anisotropy =     4.4837

      9  H    Isotropic =    29.2660   Anisotropy =     4.8447

     10  O    Isotropic =   103.9959   Anisotropy =   202.7612

     11  O    Isotropic =  -119.6429   Anisotropy =   574.2842

     12  C    Isotropic =   156.6694   Anisotropy =    24.5438

     13  C    Isotropic =   175.0220   Anisotropy =    21.3043

     14  C    Isotropic =   174.9190   Anisotropy =    13.6087

     15  O    Isotropic =   243.3087   Anisotropy =    30.3630

     16  Si   Isotropic =   334.3371   Anisotropy =    55.3050

     17  C    Isotropic =   185.5662   Anisotropy =    13.5483

     18  C    Isotropic =   184.4822   Anisotropy =    10.0657

     19  C    Isotropic =   184.4651   Anisotropy =     9.6921

     20  H    Isotropic =    31.8479   Anisotropy =     7.7356

     21  H    Isotropic =    32.0294   Anisotropy =     6.3070

     22  H    Isotropic =    32.2489   Anisotropy =    10.1511

     23  H    Isotropic =    31.9367   Anisotropy =     6.2171

     24  H    Isotropic =    31.8611   Anisotropy =     7.2041

     25  H    Isotropic =    32.1329   Anisotropy =    10.3822

     26  H    Isotropic =    32.0663   Anisotropy =     8.4426

     27  H    Isotropic =    31.9188   Anisotropy =     8.4972

     28  H    Isotropic =    32.3456   Anisotropy =     9.6772

     29  H    Isotropic =    31.3058   Anisotropy =    10.0077

     30  H    Isotropic =    31.2211   Anisotropy =     7.3002

     31  H    Isotropic =    30.3968   Anisotropy =     6.3672

     32  H    Isotropic =    30.5941   Anisotropy =     5.8779

     33  H    Isotropic =    30.2042   Anisotropy =     5.6041

     34  H    Isotropic =    30.9877   Anisotropy =    11.3557

     35  H    Isotropic =    30.5095   Anisotropy =     7.9941

     36  H    Isotropic =    31.2272   Anisotropy =     8.7313

     37  C    Isotropic =   142.5847   Anisotropy =    31.6126

     38  C    Isotropic =    42.2289   Anisotropy =   185.9148

     39  C    Isotropic =    65.8727   Anisotropy =   140.3344

     40  H    Isotropic =    29.5161   Anisotropy =     4.5778

     41  H    Isotropic =    29.5794   Anisotropy =     4.7708

     42  H    Isotropic =    25.5496   Anisotropy =     6.5035

     43  H    Isotropic =    26.8360   Anisotropy =     7.0369

     44  H    Isotropic =    26.7698   Anisotropy =     6.9828

 The electronic state is 1-A.
 Alpha  occ. eigenvalues --  -66.27062 -19.26388 -19.21490 -19.19808 -10.37347
 Alpha  occ. eigenvalues --  -10.32259 -10.30690 -10.25250 -10.25177 -10.25064
 Alpha  occ. eigenvalues --  -10.24570 -10.23753 -10.23048 -10.22181 -10.21913
 Alpha  occ. eigenvalues --  -10.20880 -10.20557 -10.20536  -5.32887  -3.66732
 Alpha  occ. eigenvalues --   -3.66502  -3.66469  -1.13574  -1.04784  -1.04229
 Alpha  occ. eigenvalues --   -0.86050  -0.83371  -0.81104  -0.77808  -0.73991
 Alpha  occ. eigenvalues --   -0.73066  -0.71910  -0.70345  -0.69919  -0.66691
 Alpha  occ. eigenvalues --   -0.63840  -0.61909  -0.59060  -0.56650  -0.53226
 Alpha  occ. eigenvalues --   -0.52699  -0.50692  -0.49054  -0.48589  -0.47180
 Alpha  occ. eigenvalues --   -0.46878  -0.45541  -0.44945  -0.44546  -0.43919
 Alpha  occ. eigenvalues --   -0.43048  -0.42558  -0.41916  -0.41746  -0.41120
 Alpha  occ. eigenvalues --   -0.40864  -0.40471  -0.40058  -0.39716  -0.39201
 Alpha  occ. eigenvalues --   -0.38364  -0.37815  -0.36918  -0.36496  -0.35859
 Alpha  occ. eigenvalues --   -0.35580  -0.34686  -0.33581  -0.31633  -0.31348
 Alpha  occ. eigenvalues --   -0.30370  -0.29688  -0.28305  -0.27137
 Alpha virt. eigenvalues --   -0.00220   0.00558   0.03935   0.05759   0.05879
 Alpha virt. eigenvalues --    0.06470   0.07079   0.07963   0.08392   0.09195
 Alpha virt. eigenvalues --    0.09740   0.10160   0.10348   0.10790   0.11063

 Mulliken charges:
               1
     1  C   -0.032116
     2  C   -0.273368
     3  C    0.168907
     4  C   -0.613798
     5  C    0.482357
     6  H    0.250809
     7  H    0.248326
     8  H    0.291751
     9  H    0.277138
    10  O   -0.318933
    11  O   -0.390284
    12  C   -0.452251
    13  C   -0.660186
    14  C   -0.702040
    15  O   -0.621580
    16  Si   1.397748
    17  C   -1.038573
    18  C   -1.065146
    19  C   -1.082112
    20  H    0.241737
    21  H    0.245901
    22  H    0.241811
    23  H    0.248054
    24  H    0.249967
    25  H    0.248748
    26  H    0.236162
    27  H    0.236901
    28  H    0.234074
    29  H    0.238751
    30  H    0.243497
    31  H    0.260197
    32  H    0.229908
    33  H    0.248207
    34  H    0.227818
    35  H    0.237839
    36  H    0.221058
    37  C   -0.534584
    38  C   -0.170561
    39  C   -0.457526
    40  H    0.261954
    41  H    0.256430
    42  H    0.235875
    43  H    0.227255
    44  H    0.223879
 Sum of Mulliken charges =   0.00000

 Dipole moment (field-independent basis, Debye):
    X=             -1.9681    Y=              3.8456    Z=              1.7181  Tot=              4.6490
 Quadrupole moment (field-independent basis, Debye-Ang):
   XX=           -118.3499   YY=           -129.4565   ZZ=           -121.6000
   XY=             12.6186   XZ=              7.2595   YZ=             -7.5751

 Normal termination of Gaussian 09 at Thu Mar  8 13:19:15 2018.
