 Gaussian 09, Revision D.01,
 Gaussian 09:  EM64L-G09RevD.01 24-Apr-2013

 --------------------------------------------------------
 #mPW1PW91/6-311g(d) nmr=(giao) scrf=(solvent=chloroform)
 --------------------------------------------------------

 --------------------
 P_ng_correct1ginp009
 --------------------
 Symbolic Z-matrix:
 Charge =  0 Multiplicity = 1

                         Standard orientation:
 ---------------------------------------------------------------------
 Center     Atomic      Atomic             Coordinates (Angstroms)
 Number     Number       Type             X           Y           Z
 ---------------------------------------------------------------------
      1          6           0       -2.367439   -0.364706   -0.404363
      2          6           0       -0.910036   -0.790641   -0.667953
      3          6           0        0.077631    0.354929   -0.302393
      4          6           0       -0.177758    0.710799    1.163458
      5          6           0       -1.592022    1.130436    1.408731
      6          1           0       -2.716982    0.282083   -1.218396
      7          1           0       -0.686404   -1.635167   -0.003597
      8          1           0        0.007511   -0.138792    1.829744
      9          1           0        0.491795    1.510396    1.498505
     10          8           0       -2.551972    0.394160    0.814468
     11          8           0       -1.873266    2.025172    2.198902
     12          6           0       -3.320031   -1.572730   -0.325863
     13          6           0       -4.776671   -1.160612   -0.143525
     14          6           0       -0.728089   -1.317627   -2.100299
     15          8           0        1.426826   -0.069454   -0.594867
     16         14           0        2.500404   -0.933128    0.348022
     17          6           0        3.988329   -1.410487   -0.719437
     18          6           0        3.155345    0.088233    1.782036
     19          6           0        1.767980   -2.526965    1.014690
     20          1           0        3.516395    1.058439    1.428277
     21          1           0        2.381346    0.261847    2.534120
     22          1           0        3.987076   -0.428801    2.270122
     23          1           0        0.953386   -2.328160    1.716144
     24          1           0        1.378537   -3.143051    0.198836
     25          1           0        2.531703   -3.106294    1.542421
     26          1           0        3.667295   -2.029106   -1.562470
     27          1           0        4.476950   -0.514043   -1.111962
     28          1           0        4.716611   -1.974946   -0.130048
     29          1           0       -1.295477   -2.240325   -2.255209
     30          1           0       -1.070773   -0.591203   -2.843836
     31          1           0        0.318242   -1.555157   -2.314413
     32          1           0       -3.037736   -2.207967    0.522568
     33          1           0       -3.248651   -2.181412   -1.232392
     34          1           0       -5.419345   -2.046807   -0.135184
     35          1           0       -4.928918   -0.629709    0.801189
     36          1           0       -5.104637   -0.511686   -0.961729
     37          6           0       -0.135667    1.603988   -1.229874
     38          6           0        0.678283    2.821429   -0.859624
     39          6           0        1.739893    3.252382   -1.552824
     40          1           0       -1.184850    1.918148   -1.240168
     41          1           0        0.112225    1.327969   -2.263229
     42          1           0        0.357813    3.391319    0.010865
     43          1           0        2.280559    4.142562   -1.246403
     44          1           0        2.099474    2.724069   -2.430631
 ---------------------------------------------------------------------

 SCF Done:  E(RmPW1PW91) =  -1064.37642629     A.U. after   13 cycles

      1  C    Isotropic =   100.9890   Anisotropy =    48.1958

      2  C    Isotropic =   139.6854   Anisotropy =    25.6915

      3  C    Isotropic =   105.2681   Anisotropy =    52.6112

      4  C    Isotropic =   143.5961   Anisotropy =    28.8725

      5  C    Isotropic =     9.8156   Anisotropy =    93.3670

      6  H    Isotropic =    28.2145   Anisotropy =     2.0178

      7  H    Isotropic =    30.1031   Anisotropy =     5.4577

      8  H    Isotropic =    29.6547   Anisotropy =     4.7696

      9  H    Isotropic =    29.1808   Anisotropy =     4.0740

     10  O    Isotropic =   108.2123   Anisotropy =   198.0436

     11  O    Isotropic =  -128.8158   Anisotropy =   578.5057

     12  C    Isotropic =   155.9042   Anisotropy =    26.5961

     13  C    Isotropic =   174.9797   Anisotropy =    21.9403

     14  C    Isotropic =   176.0584   Anisotropy =    20.7598

     15  O    Isotropic =   245.5230   Anisotropy =    18.4511

     16  Si   Isotropic =   335.7681   Anisotropy =    52.3032

     17  C    Isotropic =   186.5864   Anisotropy =    13.1100

     18  C    Isotropic =   185.1618   Anisotropy =    11.3864

     19  C    Isotropic =   185.5544   Anisotropy =     7.5525

     20  H    Isotropic =    31.9566   Anisotropy =     7.8933

     21  H    Isotropic =    32.1361   Anisotropy =     6.2558

     22  H    Isotropic =    32.3701   Anisotropy =    10.4067

     23  H    Isotropic =    32.1553   Anisotropy =     6.0931

     24  H    Isotropic =    31.9994   Anisotropy =     6.8750

     25  H    Isotropic =    32.2310   Anisotropy =    10.6674

     26  H    Isotropic =    32.0353   Anisotropy =     8.3707

     27  H    Isotropic =    31.9768   Anisotropy =     8.7929

     28  H    Isotropic =    32.4006   Anisotropy =     9.7875

     29  H    Isotropic =    31.2532   Anisotropy =     9.3814

     30  H    Isotropic =    31.4699   Anisotropy =     8.6179

     31  H    Isotropic =    30.4519   Anisotropy =     7.2329

     32  H    Isotropic =    30.5453   Anisotropy =     5.0209

     33  H    Isotropic =    30.2012   Anisotropy =     5.6939

     34  H    Isotropic =    30.9913   Anisotropy =    11.2882

     35  H    Isotropic =    30.5243   Anisotropy =     7.9712

     36  H    Isotropic =    31.2084   Anisotropy =     9.1650

     37  C    Isotropic =   145.0790   Anisotropy =    18.5760

     38  C    Isotropic =    45.7768   Anisotropy =   177.3531

     39  C    Isotropic =    61.6992   Anisotropy =   144.0569

     40  H    Isotropic =    30.0441   Anisotropy =     5.2335

     41  H    Isotropic =    29.6073   Anisotropy =     5.5273

     42  H    Isotropic =    25.7851   Anisotropy =     6.0941

     43  H    Isotropic =    26.6206   Anisotropy =     6.4493

     44  H    Isotropic =    26.6604   Anisotropy =     7.4697

 The electronic state is 1-A.
 Alpha  occ. eigenvalues --  -66.26913 -19.26482 -19.21186 -19.20313 -10.37642
 Alpha  occ. eigenvalues --  -10.32275 -10.31038 -10.25550 -10.25444 -10.24283
 Alpha  occ. eigenvalues --  -10.24048 -10.23963 -10.22837 -10.22687 -10.22025
 Alpha  occ. eigenvalues --  -10.20837 -10.20552 -10.20421  -5.32748  -3.66597
 Alpha  occ. eigenvalues --   -3.66363  -3.66326  -1.13668  -1.05155  -1.04064
 Alpha  occ. eigenvalues --   -0.86127  -0.83604  -0.80682  -0.78143  -0.74141
 Alpha  occ. eigenvalues --   -0.72558  -0.72052  -0.70331  -0.69913  -0.66608
 Alpha  occ. eigenvalues --   -0.64161  -0.61969  -0.58681  -0.56410  -0.53844
 Alpha  occ. eigenvalues --   -0.53223  -0.50029  -0.49609  -0.48281  -0.47779
 Alpha  occ. eigenvalues --   -0.47017  -0.45839  -0.44905  -0.44212  -0.43247
 Alpha  occ. eigenvalues --   -0.42735  -0.42520  -0.42191  -0.41718  -0.41634
 Alpha  occ. eigenvalues --   -0.40878  -0.40363  -0.40060  -0.39627  -0.39034
 Alpha  occ. eigenvalues --   -0.38460  -0.37797  -0.36915  -0.36575  -0.35873
 Alpha  occ. eigenvalues --   -0.35744  -0.34426  -0.33650  -0.32340  -0.31551
 Alpha  occ. eigenvalues --   -0.30369  -0.29067  -0.28444  -0.27264
 Alpha virt. eigenvalues --   -0.00619   0.01038   0.04044   0.05528   0.06010
 Alpha virt. eigenvalues --    0.06412   0.07661   0.08119   0.08682   0.08797
 Alpha virt. eigenvalues --    0.09205   0.09924   0.10153   0.10479   0.11504

 Mulliken charges:
               1
     1  C   -0.025219
     2  C   -0.299919
     3  C    0.174484
     4  C   -0.643545
     5  C    0.474820
     6  H    0.248483
     7  H    0.262363
     8  H    0.281922
     9  H    0.290273
    10  O   -0.323024
    11  O   -0.381955
    12  C   -0.450445
    13  C   -0.660354
    14  C   -0.676757
    15  O   -0.619364
    16  Si   1.420653
    17  C   -1.042143
    18  C   -1.060973
    19  C   -1.081015
    20  H    0.244644
    21  H    0.241078
    22  H    0.237486
    23  H    0.244713
    24  H    0.245912
    25  H    0.246696
    26  H    0.236407
    27  H    0.239078
    28  H    0.235040
    29  H    0.240722
    30  H    0.232524
    31  H    0.261034
    32  H    0.231432
    33  H    0.244909
    34  H    0.228140
    35  H    0.238251
    36  H    0.222700
    37  C   -0.516367
    38  C   -0.173022
    39  C   -0.450541
    40  H    0.254004
    41  H    0.262205
    42  H    0.218624
    43  H    0.225138
    44  H    0.220908
 Sum of Mulliken charges =   0.00000

 Dipole moment (field-independent basis, Debye):
    X=              1.3310    Y=             -3.9377    Z=             -2.6647  Tot=              4.9373
 Quadrupole moment (field-independent basis, Debye-Ang):
   XX=           -122.0539   YY=           -122.0550   ZZ=           -124.0097
   XY=              8.1860   XZ=             11.3426   YZ=             -6.5853

 Normal termination of Gaussian 09 at Thu Mar  8 13:19:31 2018.
