 Gaussian 09, Revision D.01,
 Gaussian 09:  EM64L-G09RevD.01 24-Apr-2013

 --------------------------------------------------------
 #mPW1PW91/6-311g(d) nmr=(giao) scrf=(solvent=chloroform)
 --------------------------------------------------------

 -------------
 P_ng_4ginp006
 -------------
 Symbolic Z-matrix:
 Charge =  0 Multiplicity = 1

                         Standard orientation:
 ---------------------------------------------------------------------
 Center     Atomic      Atomic             Coordinates (Angstroms)
 Number     Number       Type             X           Y           Z
 ---------------------------------------------------------------------
      1          6           0       -2.143087   -0.948502    0.661601
      2          6           0       -1.126779   -0.013779    1.337629
      3          6           0       -0.027939    0.463207    0.327696
      4          6           0       -0.615810    0.559965   -1.095871
      5          6           0       -2.113195    0.658700   -1.157864
      6          1           0       -2.931650   -1.153477    1.397721
      7          1           0       -1.717064    0.861757    1.636072
      8          1           0       -0.203150    1.429745   -1.621016
      9          1           0       -0.344074   -0.306318   -1.709871
     10          8           0       -2.805130   -0.218391   -0.394055
     11          8           0       -2.684955    1.424088   -1.927113
     12          6           0       -1.628836   -2.303367    0.154504
     13          6           0       -2.756729   -3.169908   -0.394993
     14          6           0       -0.570632   -0.613561    2.635286
     15          8           0        0.969968   -0.587823    0.352280
     16         14           0        2.510293   -0.576196   -0.306455
     17          6           0        3.074611   -2.364124   -0.547435
     18          6           0        2.607955    0.269099   -1.977459
     19          6           0        3.734935    0.243628    0.861965
     20          1           0        3.626889    0.212375   -2.372706
     21          1           0        1.941218   -0.213310   -2.697931
     22          1           0        2.334846    1.325301   -1.907615
     23          1           0        3.684001   -0.216580    1.853120
     24          1           0        4.755878    0.132914    0.484467
     25          1           0        3.527048    1.311612    0.967860
     26          1           0        2.401165   -2.885395   -1.233949
     27          1           0        4.086313   -2.394152   -0.962110
     28          1           0        3.074325   -2.895163    0.408844
     29          1           0       -1.388640   -0.868004    3.318186
     30          1           0        0.008757   -1.525237    2.463326
     31          1           0        0.074850    0.102337    3.153216
     32          1           0       -1.136292   -2.848488    0.966217
     33          1           0       -0.896413   -2.178894   -0.647025
     34          1           0       -3.520836   -3.349402    0.367950
     35          1           0       -3.235092   -2.699632   -1.259745
     36          1           0       -2.363809   -4.140180   -0.715241
     37          6           0        0.562595    1.836950    0.797536
     38          6           0       -0.407497    2.985834    0.893923
     39          6           0       -0.446781    4.010413    0.032516
     40          1           0        1.375437    2.135423    0.125195
     41          1           0        1.044839    1.714962    1.775628
     42          1           0       -1.094499    2.995483    1.737906
     43          1           0       -1.163412    4.816867    0.161444
     44          1           0        0.219344    4.071878   -0.822681
 ---------------------------------------------------------------------

 SCF Done:  E(RmPW1PW91) =  -1064.37373034     A.U. after   13 cycles

      1  C    Isotropic =   100.5514   Anisotropy =    44.2237

      2  C    Isotropic =   142.5243   Anisotropy =     8.0825

      3  C    Isotropic =   104.7905   Anisotropy =    48.7880

      4  C    Isotropic =   140.1963   Anisotropy =    30.0961

      5  C    Isotropic =     8.5389   Anisotropy =   101.9705

      6  H    Isotropic =    27.8608   Anisotropy =     5.0117

      7  H    Isotropic =    30.0305   Anisotropy =     6.3225

      8  H    Isotropic =    29.2143   Anisotropy =     3.8288

      9  H    Isotropic =    29.3936   Anisotropy =     2.9796

     10  O    Isotropic =    91.6236   Anisotropy =   211.4736

     11  O    Isotropic =  -118.3340   Anisotropy =   585.0259

     12  C    Isotropic =   161.5950   Anisotropy =    10.1584

     13  C    Isotropic =   174.3850   Anisotropy =    23.7821

     14  C    Isotropic =   175.2430   Anisotropy =    18.6286

     15  O    Isotropic =   230.0770   Anisotropy =    52.3774

     16  Si   Isotropic =   334.2657   Anisotropy =    52.9110

     17  C    Isotropic =   186.4019   Anisotropy =    12.5182

     18  C    Isotropic =   185.4493   Anisotropy =     6.1679

     19  C    Isotropic =   184.4209   Anisotropy =    12.4560

     20  H    Isotropic =    32.1530   Anisotropy =    10.5867

     21  H    Isotropic =    31.9142   Anisotropy =     6.7473

     22  H    Isotropic =    31.9262   Anisotropy =     6.9157

     23  H    Isotropic =    31.9646   Anisotropy =     7.9353

     24  H    Isotropic =    32.3539   Anisotropy =    10.2869

     25  H    Isotropic =    32.0571   Anisotropy =     6.3697

     26  H    Isotropic =    32.0986   Anisotropy =     7.9898

     27  H    Isotropic =    32.3506   Anisotropy =     9.9584

     28  H    Isotropic =    31.9651   Anisotropy =     8.4228

     29  H    Isotropic =    31.3701   Anisotropy =    10.9956

     30  H    Isotropic =    30.7669   Anisotropy =     5.7311

     31  H    Isotropic =    30.9319   Anisotropy =     8.4194

     32  H    Isotropic =    30.3287   Anisotropy =     4.8508

     33  H    Isotropic =    30.0981   Anisotropy =     8.8801

     34  H    Isotropic =    31.2764   Anisotropy =    10.2493

     35  H    Isotropic =    30.7324   Anisotropy =     7.9140

     36  H    Isotropic =    30.9496   Anisotropy =    10.6382

     37  C    Isotropic =   140.3396   Anisotropy =    26.6976

     38  C    Isotropic =    47.6541   Anisotropy =   169.9922

     39  C    Isotropic =    60.1926   Anisotropy =   146.2878

     40  H    Isotropic =    29.8749   Anisotropy =     4.3116

     41  H    Isotropic =    29.3856   Anisotropy =     3.5311

     42  H    Isotropic =    26.1033   Anisotropy =     6.4257

     43  H    Isotropic =    26.7030   Anisotropy =     6.3930

     44  H    Isotropic =    26.5958   Anisotropy =     7.2972

 The electronic state is 1-A.
 Alpha  occ. eigenvalues --  -66.26961 -19.25958 -19.21042 -19.19620 -10.36932
 Alpha  occ. eigenvalues --  -10.32361 -10.30229 -10.25221 -10.25014 -10.24797
 Alpha  occ. eigenvalues --  -10.24659 -10.23351 -10.23329 -10.22597 -10.21869
 Alpha  occ. eigenvalues --  -10.20905 -10.20646 -10.20475  -5.32795  -3.66642
 Alpha  occ. eigenvalues --   -3.66411  -3.66375  -1.13118  -1.04601  -1.03878
 Alpha  occ. eigenvalues --   -0.85684  -0.83071  -0.80313  -0.78334  -0.73940
 Alpha  occ. eigenvalues --   -0.73077  -0.71906  -0.70360  -0.69980  -0.66312
 Alpha  occ. eigenvalues --   -0.63932  -0.62486  -0.58133  -0.54548  -0.54207
 Alpha  occ. eigenvalues --   -0.51965  -0.51449  -0.49588  -0.48575  -0.46991
 Alpha  occ. eigenvalues --   -0.46015  -0.45737  -0.45137  -0.43748  -0.43423
 Alpha  occ. eigenvalues --   -0.42787  -0.42576  -0.42229  -0.42065  -0.41105
 Alpha  occ. eigenvalues --   -0.40811  -0.40372  -0.39853  -0.39602  -0.39113
 Alpha  occ. eigenvalues --   -0.38148  -0.37922  -0.37792  -0.36381  -0.35606
 Alpha  occ. eigenvalues --   -0.35137  -0.34738  -0.33676  -0.31729  -0.30756
 Alpha  occ. eigenvalues --   -0.30089  -0.29682  -0.28460  -0.27032
 Alpha virt. eigenvalues --   -0.00735   0.01311   0.03832   0.04961   0.06031
 Alpha virt. eigenvalues --    0.06401   0.07043   0.07765   0.08286   0.09184
 Alpha virt. eigenvalues --    0.09266   0.10230   0.10796   0.11319   0.11474

 Mulliken charges:
               1
     1  C   -0.033183
     2  C   -0.348918
     3  C    0.244862
     4  C   -0.656556
     5  C    0.500067
     6  H    0.246086
     7  H    0.259244
     8  H    0.275580
     9  H    0.298401
    10  O   -0.318813
    11  O   -0.387090
    12  C   -0.447117
    13  C   -0.658857
    14  C   -0.657203
    15  O   -0.622074
    16  Si   1.419626
    17  C   -1.040655
    18  C   -1.077879
    19  C   -1.059486
    20  H    0.246920
    21  H    0.247570
    22  H    0.248916
    23  H    0.239530
    24  H    0.234763
    25  H    0.243055
    26  H    0.236764
    27  H    0.235743
    28  H    0.237070
    29  H    0.230909
    30  H    0.250971
    31  H    0.236747
    32  H    0.240510
    33  H    0.246334
    34  H    0.221053
    35  H    0.233208
    36  H    0.226722
    37  C   -0.562433
    38  C   -0.187725
    39  C   -0.444511
    40  H    0.251699
    41  H    0.268860
    42  H    0.224478
    43  H    0.231862
    44  H    0.224951
 Sum of Mulliken charges =   0.00000

 Dipole moment (field-independent basis, Debye):
    X=              3.9875    Y=             -1.4976    Z=              2.8800  Tot=              5.1417
 Quadrupole moment (field-independent basis, Debye-Ang):
   XX=           -130.3616   YY=           -118.1438   ZZ=           -120.1301
   XY=              6.7884   XZ=            -13.9826   YZ=              4.2086

 Normal termination of Gaussian 09 at Thu Mar  8 13:59:13 2018.
