 Gaussian 09, Revision D.01,
 Gaussian 09:  EM64L-G09RevD.01 24-Apr-2013

 --------------------------------------------------------
 #mPW1PW91/6-311g(d) nmr=(giao) scrf=(solvent=chloroform)
 --------------------------------------------------------

 --------------------
 P_ng_correct1ginp013
 --------------------
 Symbolic Z-matrix:
 Charge =  0 Multiplicity = 1

                         Standard orientation:
 ---------------------------------------------------------------------
 Center     Atomic      Atomic             Coordinates (Angstroms)
 Number     Number       Type             X           Y           Z
 ---------------------------------------------------------------------
      1          6           0        2.339658   -0.648465    0.294147
      2          6           0        0.871635   -0.848895    0.736490
      3          6           0       -0.017088    0.386598    0.433983
      4          6           0        0.271913    0.796239   -1.017372
      5          6           0        1.697006    1.219876   -1.183977
      6          1           0        2.981790   -0.606599    1.182358
      7          1           0        0.463708   -1.685734    0.158721
      8          1           0        0.094589   -0.024186   -1.720743
      9          1           0       -0.375118    1.624971   -1.324534
     10          8           0        2.600924    0.597269   -0.398665
     11          8           0        2.036808    2.072125   -1.996964
     12          6           0        2.866031   -1.771710   -0.617590
     13          6           0        2.918016   -3.139719    0.042384
     14          6           0        0.795134   -1.320589    2.197512
     15          8           0       -1.397483    0.052772    0.707603
     16         14           0       -2.529305   -0.675274   -0.282911
     17          6           0       -4.054434   -1.095289    0.756043
     18          6           0       -3.098771    0.472035   -1.657745
     19          6           0       -1.923487   -2.280391   -1.043394
     20          1           0       -3.372325    1.450544   -1.252264
     21          1           0       -2.315062    0.614909   -2.406308
     22          1           0       -3.974166    0.054731   -2.164567
     23          1           0       -2.723431   -2.754161   -1.620535
     24          1           0       -1.080056   -2.108569   -1.717442
     25          1           0       -1.607245   -2.981331   -0.265240
     26          1           0       -4.821228   -1.568347    0.135849
     27          1           0       -3.785708   -1.782782    1.563253
     28          1           0       -4.474543   -0.187145    1.197852
     29          1           0        1.321764   -2.271465    2.327061
     30          1           0        1.254702   -0.599831    2.881198
     31          1           0       -0.241619   -1.477383    2.511348
     32          1           0        3.875910   -1.506728   -0.956662
     33          1           0        2.257684   -1.825323   -1.529172
     34          1           0        3.391772   -3.862103   -0.630187
     35          1           0        3.501844   -3.107050    0.967527
     36          1           0        1.917515   -3.514886    0.275148
     37          6           0        0.289905    1.559008    1.430962
     38          6           0       -0.417811    2.849207    1.100296
     39          6           0        0.205603    3.988903    0.776323
     40          1           0        1.367830    1.738106    1.513550
     41          1           0       -0.051547    1.279671    2.436491
     42          1           0       -1.505538    2.832637    1.144392
     43          1           0       -0.361274    4.887492    0.551620
     44          1           0        1.288178    4.056226    0.717883
 ---------------------------------------------------------------------

 SCF Done:  E(RmPW1PW91) =  -1064.37448011     A.U. after   13 cycles

      1  C    Isotropic =   101.7455   Anisotropy =    52.8581

      2  C    Isotropic =   142.5177   Anisotropy =    23.3531

      3  C    Isotropic =   104.7624   Anisotropy =    58.5857

      4  C    Isotropic =   144.8744   Anisotropy =    26.8075

      5  C    Isotropic =     9.5563   Anisotropy =    92.6720

      6  H    Isotropic =    28.0153   Anisotropy =     3.2156

      7  H    Isotropic =    30.1200   Anisotropy =     5.0606

      8  H    Isotropic =    29.8197   Anisotropy =     3.8127

      9  H    Isotropic =    29.1670   Anisotropy =     3.4268

     10  O    Isotropic =    95.4927   Anisotropy =   202.9717

     11  O    Isotropic =  -125.2877   Anisotropy =   578.8947

     12  C    Isotropic =   151.9882   Anisotropy =    29.9713

     13  C    Isotropic =   176.9974   Anisotropy =    14.1573

     14  C    Isotropic =   171.3965   Anisotropy =    24.4199

     15  O    Isotropic =   247.7542   Anisotropy =    18.2394

     16  Si   Isotropic =   335.4028   Anisotropy =    52.3560

     17  C    Isotropic =   186.2609   Anisotropy =    13.5207

     18  C    Isotropic =   184.7893   Anisotropy =    11.2130

     19  C    Isotropic =   185.3061   Anisotropy =     6.9762

     20  H    Isotropic =    31.9111   Anisotropy =     8.0814

     21  H    Isotropic =    32.0578   Anisotropy =     6.1997

     22  H    Isotropic =    32.3006   Anisotropy =    10.3214

     23  H    Isotropic =    32.2013   Anisotropy =    10.5634

     24  H    Isotropic =    32.1074   Anisotropy =     6.2592

     25  H    Isotropic =    31.9769   Anisotropy =     6.9652

     26  H    Isotropic =    32.3649   Anisotropy =     9.6541

     27  H    Isotropic =    32.0096   Anisotropy =     8.4442

     28  H    Isotropic =    31.9396   Anisotropy =     8.9766

     29  H    Isotropic =    31.1714   Anisotropy =     8.3586

     30  H    Isotropic =    31.1156   Anisotropy =     8.3158

     31  H    Isotropic =    30.5365   Anisotropy =     7.7785

     32  H    Isotropic =    30.0196   Anisotropy =     8.6810

     33  H    Isotropic =    30.6563   Anisotropy =     4.0253

     34  H    Isotropic =    30.9071   Anisotropy =    11.4119

     35  H    Isotropic =    31.2572   Anisotropy =     8.9905

     36  H    Isotropic =    31.2314   Anisotropy =     5.5271

     37  C    Isotropic =   142.1579   Anisotropy =    23.1284

     38  C    Isotropic =    44.4655   Anisotropy =   179.2373

     39  C    Isotropic =    63.0410   Anisotropy =   142.9121

     40  H    Isotropic =    29.9252   Anisotropy =     6.3112

     41  H    Isotropic =    29.3497   Anisotropy =     4.1807

     42  H    Isotropic =    25.6871   Anisotropy =     6.8177

     43  H    Isotropic =    26.7173   Anisotropy =     6.8991

     44  H    Isotropic =    26.8160   Anisotropy =     7.5005

 The electronic state is 1-A.
 Alpha  occ. eigenvalues --  -66.27049 -19.26390 -19.21422 -19.20049 -10.37425
 Alpha  occ. eigenvalues --  -10.32302 -10.31019 -10.25471 -10.25390 -10.24042
 Alpha  occ. eigenvalues --  -10.24009 -10.23910 -10.22834 -10.22693 -10.22577
 Alpha  occ. eigenvalues --  -10.20972 -10.20647 -10.20548  -5.32884  -3.66733
 Alpha  occ. eigenvalues --   -3.66499  -3.66464  -1.13536  -1.04965  -1.04189
 Alpha  occ. eigenvalues --   -0.86083  -0.83583  -0.80440  -0.78350  -0.74236
 Alpha  occ. eigenvalues --   -0.72886  -0.72226  -0.70458  -0.70014  -0.66698
 Alpha  occ. eigenvalues --   -0.63728  -0.62441  -0.58130  -0.55954  -0.53857
 Alpha  occ. eigenvalues --   -0.53167  -0.50634  -0.49897  -0.48610  -0.47662
 Alpha  occ. eigenvalues --   -0.46404  -0.45335  -0.44681  -0.44514  -0.43090
 Alpha  occ. eigenvalues --   -0.42963  -0.42718  -0.42428  -0.41878  -0.41214
 Alpha  occ. eigenvalues --   -0.40926  -0.40572  -0.40340  -0.39763  -0.39290
 Alpha  occ. eigenvalues --   -0.38551  -0.37945  -0.37700  -0.36448  -0.36068
 Alpha  occ. eigenvalues --   -0.35803  -0.34281  -0.33561  -0.32693  -0.30970
 Alpha  occ. eigenvalues --   -0.30376  -0.29191  -0.28514  -0.27054
 Alpha virt. eigenvalues --   -0.00154   0.01325   0.03491   0.05240   0.05766
 Alpha virt. eigenvalues --    0.06819   0.06863   0.07552   0.08188   0.08357
 Alpha virt. eigenvalues --    0.09609   0.09996   0.10853   0.11020   0.11395

 Mulliken charges:
               1
     1  C   -0.022584
     2  C   -0.314908
     3  C    0.180331
     4  C   -0.655230
     5  C    0.483612
     6  H    0.251691
     7  H    0.283092
     8  H    0.281194
     9  H    0.292224
    10  O   -0.313632
    11  O   -0.383637
    12  C   -0.454240
    13  C   -0.674661
    14  C   -0.688027
    15  O   -0.623704
    16  Si   1.416556
    17  C   -1.039572
    18  C   -1.063542
    19  C   -1.087118
    20  H    0.244811
    21  H    0.242943
    22  H    0.239157
    23  H    0.248831
    24  H    0.245065
    25  H    0.245780
    26  H    0.235592
    27  H    0.237508
    28  H    0.238442
    29  H    0.245920
    30  H    0.235666
    31  H    0.251815
    32  H    0.242828
    33  H    0.231993
    34  H    0.239592
    35  H    0.231744
    36  H    0.233508
    37  C   -0.513590
    38  C   -0.187729
    39  C   -0.446695
    40  H    0.253962
    41  H    0.265124
    42  H    0.220409
    43  H    0.224947
    44  H    0.224534
 Sum of Mulliken charges =   0.00000

 Dipole moment (field-independent basis, Debye):
    X=             -1.7280    Y=             -4.7207    Z=              1.8306  Tot=              5.3500
 Quadrupole moment (field-independent basis, Debye-Ang):
   XX=           -121.0268   YY=           -122.0361   ZZ=           -124.5379
   XY=            -10.3249   XZ=             10.1017   YZ=              6.8256

 Normal termination of Gaussian 09 at Thu Mar  8 13:18:53 2018.
