 Gaussian 09, Revision D.01,
 Gaussian 09:  EM64L-G09RevD.01 24-Apr-2013

 --------------------------------------------------------
 #mPW1PW91/6-311g(d) nmr=(giao) scrf=(solvent=chloroform)
 --------------------------------------------------------

 -------------
 P_ng_2ginp002
 -------------
 Symbolic Z-matrix:
 Charge =  0 Multiplicity = 1

                         Standard orientation:
 ---------------------------------------------------------------------
 Center     Atomic      Atomic             Coordinates (Angstroms)
 Number     Number       Type             X           Y           Z
 ---------------------------------------------------------------------
      1          6           0        2.357421   -0.438936    0.492313
      2          6           0        0.883890   -0.808491    0.739258
      3          6           0       -0.043604    0.399745    0.418284
      4          6           0        0.235937    0.810905   -1.031263
      5          6           0        1.678637    1.133039   -1.275587
      6          1           0        2.705229    0.224745    1.293438
      7          1           0        0.609537   -1.605195    0.040030
      8          1           0       -0.016086    0.011949   -1.736963
      9          1           0       -0.373344    1.673972   -1.321329
     10          8           0        2.582032    0.285564   -0.738527
     11          8           0        2.025149    2.034878   -2.030907
     12          6           0        3.328232   -1.635108    0.486605
     13          6           0        3.052900   -2.664929   -0.601998
     14          6           0        0.677366   -1.385311    2.146887
     15          8           0       -1.416325    0.036373    0.689039
     16         14           0       -2.515170   -0.760541   -0.285769
     17          6           0       -3.131317    0.337548   -1.680441
     18          6           0       -1.839276   -2.352781   -1.011795
     19          6           0       -4.021046   -1.224526    0.762266
     20          1           0       -2.622402   -2.883473   -1.561833
     21          1           0       -1.016771   -2.157622   -1.705061
     22          1           0       -1.474509   -3.013887   -0.220120
     23          1           0       -4.766974   -1.741878    0.152075
     24          1           0       -3.723352   -1.883961    1.582624
     25          1           0       -4.479490   -0.326613    1.186525
     26          1           0       -3.970283   -0.137526   -2.197854
     27          1           0       -3.472370    1.300024   -1.287847
     28          1           0       -2.345579    0.525087   -2.416823
     29          1           0       -0.378867   -1.582851    2.352609
     30          1           0        1.203099   -2.338940    2.258251
     31          1           0        1.053631   -0.707979    2.919897
     32          1           0        3.332713   -2.131374    1.462750
     33          1           0        4.344313   -1.252446    0.324649
     34          1           0        2.109846   -3.190699   -0.427870
     35          1           0        3.015104   -2.201458   -1.592463
     36          1           0        3.849093   -3.416544   -0.613365
     37          6           0        0.229914    1.602289    1.388334
     38          6           0       -0.600458    2.829188    1.101154
     39          6           0       -0.095083    4.012673    0.731216
     40          1           0        1.288963    1.880523    1.385328
     41          1           0       -0.012808    1.303946    2.416100
     42          1           0       -1.678034    2.725650    1.218188
     43          1           0       -0.747933    4.859827    0.542472
     44          1           0        0.971718    4.167942    0.599118
 ---------------------------------------------------------------------

 SCF Done:  E(RmPW1PW91) =  -1064.37727323     A.U. after   13 cycles

      1  C    Isotropic =   104.7152   Anisotropy =    59.1305

      2  C    Isotropic =   145.8860   Anisotropy =    19.4001

      3  C    Isotropic =   104.6361   Anisotropy =    56.9280

      4  C    Isotropic =   143.3683   Anisotropy =    27.7881

      5  C    Isotropic =     8.7695   Anisotropy =    95.3951

      6  H    Isotropic =    27.9097   Anisotropy =     2.5869

      7  H    Isotropic =    29.8724   Anisotropy =     4.3053

      8  H    Isotropic =    29.7424   Anisotropy =     4.6634

      9  H    Isotropic =    29.1120   Anisotropy =     3.5027

     10  O    Isotropic =   106.4395   Anisotropy =   177.2359

     11  O    Isotropic =  -135.7598   Anisotropy =   589.2713

     12  C    Isotropic =   160.2245   Anisotropy =    22.4421

     13  C    Isotropic =   180.8416   Anisotropy =    11.1248

     14  C    Isotropic =   177.0296   Anisotropy =    19.1023

     15  O    Isotropic =   246.7056   Anisotropy =    18.3053

     16  Si   Isotropic =   335.4840   Anisotropy =    51.7666

     17  C    Isotropic =   185.0388   Anisotropy =    11.2465

     18  C    Isotropic =   185.4297   Anisotropy =     7.6646

     19  C    Isotropic =   186.4308   Anisotropy =    13.2614

     20  H    Isotropic =    32.1839   Anisotropy =    10.6651

     21  H    Isotropic =    32.0860   Anisotropy =     6.2186

     22  H    Isotropic =    31.9485   Anisotropy =     6.7952

     23  H    Isotropic =    32.3544   Anisotropy =     9.6947

     24  H    Isotropic =    31.9964   Anisotropy =     8.3870

     25  H    Isotropic =    31.9483   Anisotropy =     9.0131

     26  H    Isotropic =    32.3208   Anisotropy =    10.3423

     27  H    Isotropic =    31.9359   Anisotropy =     8.1982

     28  H    Isotropic =    32.0932   Anisotropy =     6.2211

     29  H    Isotropic =    30.5123   Anisotropy =     7.4895

     30  H    Isotropic =    31.3172   Anisotropy =     9.3516

     31  H    Isotropic =    31.5151   Anisotropy =     9.0114

     32  H    Isotropic =    30.3037   Anisotropy =     7.2544

     33  H    Isotropic =    30.0664   Anisotropy =     9.8979

     34  H    Isotropic =    31.2266   Anisotropy =     6.7053

     35  H    Isotropic =    31.1066   Anisotropy =     7.1743

     36  H    Isotropic =    31.1803   Anisotropy =    11.9203

     37  C    Isotropic =   144.2421   Anisotropy =    18.0369

     38  C    Isotropic =    44.4086   Anisotropy =   179.0941

     39  C    Isotropic =    63.0446   Anisotropy =   142.8395

     40  H    Isotropic =    30.1449   Anisotropy =     6.4027

     41  H    Isotropic =    29.4524   Anisotropy =     4.4123

     42  H    Isotropic =    25.6718   Anisotropy =     6.9837

     43  H    Isotropic =    26.6608   Anisotropy =     6.9165

     44  H    Isotropic =    26.7871   Anisotropy =     7.4487

 The electronic state is 1-A.
 Alpha  occ. eigenvalues --  -66.27032 -19.26330 -19.21387 -19.20257 -10.37515
 Alpha  occ. eigenvalues --  -10.32273 -10.30927 -10.25483 -10.25267 -10.24257
 Alpha  occ. eigenvalues --  -10.24007 -10.23975 -10.22874 -10.22656 -10.22258
 Alpha  occ. eigenvalues --  -10.20931 -10.20648 -10.20522  -5.32867  -3.66717
 Alpha  occ. eigenvalues --   -3.66482  -3.66446  -1.13547  -1.05051  -1.04190
 Alpha  occ. eigenvalues --   -0.86138  -0.83532  -0.80573  -0.77950  -0.74233
 Alpha  occ. eigenvalues --   -0.72819  -0.72114  -0.70424  -0.70003  -0.67000
 Alpha  occ. eigenvalues --   -0.63193  -0.62531  -0.58601  -0.55962  -0.53882
 Alpha  occ. eigenvalues --   -0.52786  -0.50718  -0.49644  -0.48686  -0.47706
 Alpha  occ. eigenvalues --   -0.46356  -0.45344  -0.44746  -0.44453  -0.43580
 Alpha  occ. eigenvalues --   -0.43179  -0.42694  -0.42474  -0.41803  -0.41301
 Alpha  occ. eigenvalues --   -0.40850  -0.40512  -0.39932  -0.39690  -0.38939
 Alpha  occ. eigenvalues --   -0.38298  -0.37745  -0.37208  -0.36831  -0.36155
 Alpha  occ. eigenvalues --   -0.35835  -0.34330  -0.33632  -0.32407  -0.31360
 Alpha  occ. eigenvalues --   -0.30390  -0.29139  -0.28518  -0.27171
 Alpha virt. eigenvalues --   -0.00661   0.01210   0.03742   0.05500   0.05664
 Alpha virt. eigenvalues --    0.06468   0.07646   0.07960   0.08365   0.08749
 Alpha virt. eigenvalues --    0.09728   0.10296   0.10339   0.11024   0.11202

 Mulliken charges:
               1
     1  C   -0.036357
     2  C   -0.319234
     3  C    0.163957
     4  C   -0.613385
     5  C    0.468356
     6  H    0.252925
     7  H    0.279479
     8  H    0.279641
     9  H    0.288639
    10  O   -0.320997
    11  O   -0.378806
    12  C   -0.451407
    13  C   -0.678789
    14  C   -0.677756
    15  O   -0.628167
    16  Si   1.416396
    17  C   -1.059693
    18  C   -1.087120
    19  C   -1.041518
    20  H    0.248109
    21  H    0.247631
    22  H    0.246912
    23  H    0.235835
    24  H    0.237517
    25  H    0.238158
    26  H    0.238015
    27  H    0.243563
    28  H    0.243407
    29  H    0.260044
    30  H    0.242291
    31  H    0.233171
    32  H    0.244033
    33  H    0.242135
    34  H    0.227803
    35  H    0.236090
    36  H    0.234475
    37  C   -0.504495
    38  C   -0.188285
    39  C   -0.447802
    40  H    0.250232
    41  H    0.263415
    42  H    0.222345
    43  H    0.225494
    44  H    0.223739
 Sum of Mulliken charges =   0.00000

 Dipole moment (field-independent basis, Debye):
    X=             -1.6974    Y=             -3.9584    Z=              2.6770  Tot=              5.0711
 Quadrupole moment (field-independent basis, Debye-Ang):
   XX=           -120.7821   YY=           -121.8116   ZZ=           -124.8708
   XY=             -7.8475   XZ=             12.2705   YZ=              5.7072

 Normal termination of Gaussian 09 at Thu Mar  8 13:19:53 2018.
