 Gaussian 09, Revision D.01,
 Gaussian 09:  EM64L-G09RevD.01 24-Apr-2013

 --------------------------------------------------------
 #mPW1PW91/6-311g(d) nmr=(giao) scrf=(solvent=chloroform)
 --------------------------------------------------------

 -------------
 P_ng_4ginp001
 -------------
 Symbolic Z-matrix:
 Charge =  0 Multiplicity = 1

                         Standard orientation:
 ---------------------------------------------------------------------
 Center     Atomic      Atomic             Coordinates (Angstroms)
 Number     Number       Type             X           Y           Z
 ---------------------------------------------------------------------
      1          6           0       -2.360051    0.081900    0.298529
      2          6           0       -0.999175    0.256614    0.986432
      3          6           0        0.136508    0.124809   -0.080603
      4          6           0       -0.008636   -1.254718   -0.733875
      5          6           0       -1.400104   -1.582440   -1.203439
      6          1           0       -2.518589    0.895308   -0.417907
      7          1           0       -0.953854    1.257390    1.435845
      8          1           0        0.654404   -1.327751   -1.604360
      9          1           0        0.290739   -2.053766   -0.046649
     10          8           0       -2.432746   -1.147390   -0.450900
     11          8           0       -1.587778   -2.319344   -2.167074
     12          6           0       -3.550357    0.113550    1.271011
     13          6           0       -4.887271    0.176686    0.540570
     14          6           0       -0.814847   -0.723693    2.164581
     15          8           0        1.366901    0.292067    0.659887
     16         14           0        2.919756   -0.172940    0.244659
     17          6           0        3.170386   -2.022240    0.483939
     18          6           0        3.410197    0.271887   -1.508416
     19          6           0        4.134845    0.704069    1.401186
     20          1           0        4.454659    0.001254   -1.691680
     21          1           0        2.794923   -0.259224   -2.239802
     22          1           0        3.306819    1.347164   -1.680811
     23          1           0        5.162716    0.409921    1.170227
     24          1           0        4.048784    1.788732    1.289197
     25          1           0        3.922983    0.443724    2.442214
     26          1           0        4.231551   -2.276573    0.403647
     27          1           0        2.816787   -2.332247    1.471607
     28          1           0        2.628962   -2.594884   -0.273793
     29          1           0       -1.516605   -0.492590    2.972936
     30          1           0       -0.983810   -1.763193    1.867903
     31          1           0        0.186838   -0.651941    2.599028
     32          1           0       -3.468755    0.982722    1.933538
     33          1           0       -3.558937   -0.789406    1.892241
     34          1           0       -5.709123    0.214826    1.262627
     35          1           0       -4.948050    1.070289   -0.088741
     36          1           0       -5.037078   -0.702542   -0.093688
     37          6           0        0.040566    1.239433   -1.179202
     38          6           0        0.051156    2.648664   -0.645015
     39          6           0       -0.893689    3.561396   -0.904226
     40          1           0       -0.843821    1.085707   -1.808813
     41          1           0        0.890923    1.157797   -1.862879
     42          1           0        0.895228    2.927301   -0.015732
     43          1           0       -0.822309    4.563722   -0.491587
     44          1           0       -1.750150    3.341255   -1.533931
 ---------------------------------------------------------------------

 SCF Done:  E(RmPW1PW91) =  -1064.37761240     A.U. after   12 cycles

      1  C    Isotropic =   106.4356   Anisotropy =    42.5844

      2  C    Isotropic =   144.1339   Anisotropy =    27.9432

      3  C    Isotropic =   105.0717   Anisotropy =    56.5793

      4  C    Isotropic =   144.4168   Anisotropy =    35.0162

      5  C    Isotropic =     8.9023   Anisotropy =    94.8738

      6  H    Isotropic =    28.0947   Anisotropy =     3.4283

      7  H    Isotropic =    30.0357   Anisotropy =     5.4416

      8  H    Isotropic =    29.5442   Anisotropy =     3.6105

      9  H    Isotropic =    29.2517   Anisotropy =     4.6487

     10  O    Isotropic =   120.6382   Anisotropy =   202.3060

     11  O    Isotropic =  -135.5764   Anisotropy =   601.3505

     12  C    Isotropic =   156.9746   Anisotropy =    21.9354

     13  C    Isotropic =   174.1847   Anisotropy =    23.0377

     14  C    Isotropic =   178.0355   Anisotropy =    15.3026

     15  O    Isotropic =   245.1652   Anisotropy =    19.2685

     16  Si   Isotropic =   334.2379   Anisotropy =    54.3356

     17  C    Isotropic =   184.8581   Anisotropy =    10.9294

     18  C    Isotropic =   185.2778   Anisotropy =     6.7836

     19  C    Isotropic =   186.2868   Anisotropy =    13.4215

     20  H    Isotropic =    32.1553   Anisotropy =    10.4638

     21  H    Isotropic =    31.9562   Anisotropy =     6.5237

     22  H    Isotropic =    31.8911   Anisotropy =     7.3046

     23  H    Isotropic =    32.3444   Anisotropy =     9.7519

     24  H    Isotropic =    32.0122   Anisotropy =     8.6404

     25  H    Isotropic =    31.9561   Anisotropy =     8.6006

     26  H    Isotropic =    32.2834   Anisotropy =    10.4121

     27  H    Isotropic =    31.9505   Anisotropy =     7.4196

     28  H    Isotropic =    32.0370   Anisotropy =     6.3939

     29  H    Isotropic =    31.0750   Anisotropy =     9.7524

     30  H    Isotropic =    31.3945   Anisotropy =     7.1235

     31  H    Isotropic =    30.6994   Anisotropy =     7.9868

     32  H    Isotropic =    30.6629   Anisotropy =     6.7217

     33  H    Isotropic =    30.2029   Anisotropy =     4.5438

     34  H    Isotropic =    30.9675   Anisotropy =    11.4444

     35  H    Isotropic =    31.2312   Anisotropy =     8.6640

     36  H    Isotropic =    30.6121   Anisotropy =     8.0857

     37  C    Isotropic =   141.3136   Anisotropy =    35.3606

     38  C    Isotropic =    44.7292   Anisotropy =   180.3164

     39  C    Isotropic =    64.7653   Anisotropy =   141.1608

     40  H    Isotropic =    29.8017   Anisotropy =     5.1786

     41  H    Isotropic =    29.4670   Anisotropy =     6.3662

     42  H    Isotropic =    25.6908   Anisotropy =     7.2336

     43  H    Isotropic =    26.7109   Anisotropy =     6.9828

     44  H    Isotropic =    26.7651   Anisotropy =     7.2517

 The electronic state is 1-A.
 Alpha  occ. eigenvalues --  -66.27023 -19.26374 -19.21358 -19.20331 -10.37665
 Alpha  occ. eigenvalues --  -10.32220 -10.30482 -10.25535 -10.25067 -10.24633
 Alpha  occ. eigenvalues --  -10.24442 -10.23755 -10.23043 -10.22248 -10.21956
 Alpha  occ. eigenvalues --  -10.20871 -10.20610 -10.20541  -5.32853  -3.66700
 Alpha  occ. eigenvalues --   -3.66468  -3.66435  -1.13677  -1.05130  -1.04140
 Alpha  occ. eigenvalues --   -0.85945  -0.83236  -0.81102  -0.77642  -0.74066
 Alpha  occ. eigenvalues --   -0.73277  -0.71446  -0.70306  -0.69987  -0.66576
 Alpha  occ. eigenvalues --   -0.64054  -0.62190  -0.58728  -0.54982  -0.53471
 Alpha  occ. eigenvalues --   -0.53208  -0.51317  -0.50263  -0.47961  -0.47487
 Alpha  occ. eigenvalues --   -0.46746  -0.45330  -0.45175  -0.44688  -0.43906
 Alpha  occ. eigenvalues --   -0.42861  -0.42727  -0.42512  -0.41637  -0.40986
 Alpha  occ. eigenvalues --   -0.40657  -0.40359  -0.39685  -0.39337  -0.38857
 Alpha  occ. eigenvalues --   -0.38341  -0.37922  -0.37088  -0.36699  -0.36398
 Alpha  occ. eigenvalues --   -0.35663  -0.34539  -0.33309  -0.31797  -0.31159
 Alpha  occ. eigenvalues --   -0.30336  -0.29678  -0.28601  -0.27347
 Alpha virt. eigenvalues --   -0.00761   0.00797   0.03821   0.05489   0.05918
 Alpha virt. eigenvalues --    0.06564   0.07385   0.08095   0.08380   0.09132
 Alpha virt. eigenvalues --    0.09382   0.09888   0.10343   0.10854   0.11191

 Mulliken charges:
               1
     1  C   -0.057891
     2  C   -0.282065
     3  C    0.172511
     4  C   -0.647713
     5  C    0.474838
     6  H    0.259085
     7  H    0.256046
     8  H    0.267538
     9  H    0.308955
    10  O   -0.314037
    11  O   -0.378926
    12  C   -0.462750
    13  C   -0.662146
    14  C   -0.682831
    15  O   -0.630125
    16  Si   1.429927
    17  C   -1.067199
    18  C   -1.085704
    19  C   -1.041079
    20  H    0.247656
    21  H    0.246676
    22  H    0.246889
    23  H    0.235649
    24  H    0.237460
    25  H    0.237501
    26  H    0.239861
    27  H    0.242541
    28  H    0.241751
    29  H    0.243840
    30  H    0.228094
    31  H    0.260765
    32  H    0.240861
    33  H    0.243625
    34  H    0.228659
    35  H    0.221638
    36  H    0.236707
    37  C   -0.506200
    38  C   -0.177070
    39  C   -0.454772
    40  H    0.249253
    41  H    0.275469
    42  H    0.225275
    43  H    0.227525
    44  H    0.223915
 Sum of Mulliken charges =   0.00000

 Dipole moment (field-independent basis, Debye):
    X=              1.7906    Y=              2.9720    Z=              2.5546  Tot=              4.3087
 Quadrupole moment (field-independent basis, Debye-Ang):
   XX=           -116.4700   YY=           -125.2690   ZZ=           -125.7145
   XY=            -10.1891   XZ=             -9.2119   YZ=             -8.2481

 Normal termination of Gaussian 09 at Thu Mar  8 13:53:52 2018.
