 Gaussian 09, Revision D.01,
 Gaussian 09:  EM64L-G09RevD.01 24-Apr-2013

 --------------------------------------------------------
 #mPW1PW91/6-311g(d) nmr=(giao) scrf=(solvent=chloroform)
 --------------------------------------------------------

 --------------------
 P_ng_correct1ginp015
 --------------------
 Symbolic Z-matrix:
 Charge =  0 Multiplicity = 1

                         Standard orientation:
 ---------------------------------------------------------------------
 Center     Atomic      Atomic             Coordinates (Angstroms)
 Number     Number       Type             X           Y           Z
 ---------------------------------------------------------------------
      1          6           0       -2.449784   -0.030330   -0.554638
      2          6           0       -1.026052   -0.562037   -0.800948
      3          6           0        0.035150    0.467102   -0.310279
      4          6           0       -0.257541    0.737530    1.168120
      5          6           0       -1.651660    1.233966    1.396172
      6          1           0       -2.673356    0.758889   -1.282979
      7          1           0       -0.886633   -1.463489   -0.194508
      8          1           0       -0.156660   -0.167284    1.777381
      9          1           0        0.449600    1.462088    1.586112
     10          8           0       -2.634203    0.576788    0.744750
     11          8           0       -1.903851    2.103271    2.223242
     12          6           0       -3.565273   -1.080389   -0.716398
     13          6           0       -3.473118   -2.251799    0.253485
     14          6           0       -0.833647   -0.996928   -2.260754
     15          8           0        1.355361   -0.051736   -0.582599
     16         14           0        2.312481   -1.065535    0.335839
     17          6           0        1.423135   -2.633104    0.859115
     18          6           0        3.800956   -1.594205   -0.706358
     19          6           0        2.986416   -0.202750    1.862245
     20          1           0        3.466975   -2.124720   -1.602722
     21          1           0        4.378157   -0.718014   -1.015494
     22          1           0        4.454157   -2.257186   -0.131752
     23          1           0        3.442855    0.753928    1.591611
     24          1           0        2.197230   -0.013082    2.594381
     25          1           0        3.749454   -0.821305    2.344414
     26          1           0        0.596945   -2.414119    1.540740
     27          1           0        1.021319   -3.157554   -0.012882
     28          1           0        2.112773   -3.309227    1.373545
     29          1           0       -1.472689   -1.852907   -2.499773
     30          1           0       -1.084795   -0.191788   -2.958302
     31          1           0        0.196317   -1.308932   -2.457876
     32          1           0       -3.589796   -1.460439   -1.743091
     33          1           0       -4.530081   -0.586786   -0.541536
     34          1           0       -4.358759   -2.887985    0.154058
     35          1           0       -2.598370   -2.875230    0.047963
     36          1           0       -3.420588   -1.910021    1.291601
     37          6           0       -0.028389    1.795246   -1.145127
     38          6           0        0.882435    2.898868   -0.660732
     39          6           0        2.001887    3.277401   -1.290675
     40          1           0       -1.041730    2.209934   -1.158756
     41          1           0        0.227711    1.573422   -2.189403
     42          1           0        0.587393    3.430394    0.242346
     43          1           0        2.612348    4.086870   -0.902444
     44          1           0        2.339948    2.784028   -2.196900
 ---------------------------------------------------------------------

 SCF Done:  E(RmPW1PW91) =  -1064.37568934     A.U. after   12 cycles

      1  C    Isotropic =   104.3464   Anisotropy =    59.6614

      2  C    Isotropic =   145.2457   Anisotropy =    20.2929

      3  C    Isotropic =   104.9720   Anisotropy =    52.0491

      4  C    Isotropic =   143.5098   Anisotropy =    29.1620

      5  C    Isotropic =     8.3050   Anisotropy =    95.9424

      6  H    Isotropic =    27.9369   Anisotropy =     2.5940

      7  H    Isotropic =    29.8773   Anisotropy =     4.0223

      8  H    Isotropic =    29.6439   Anisotropy =     4.3933

      9  H    Isotropic =    29.1966   Anisotropy =     4.2464

     10  O    Isotropic =   106.9497   Anisotropy =   176.6966

     11  O    Isotropic =  -137.1452   Anisotropy =   589.7971

     12  C    Isotropic =   160.3797   Anisotropy =    22.2778

     13  C    Isotropic =   180.9030   Anisotropy =    11.1274

     14  C    Isotropic =   176.9169   Anisotropy =    19.0366

     15  O    Isotropic =   245.3386   Anisotropy =    18.4510

     16  Si   Isotropic =   335.9385   Anisotropy =    51.7880

     17  C    Isotropic =   185.4322   Anisotropy =     7.7170

     18  C    Isotropic =   186.6182   Anisotropy =    13.1195

     19  C    Isotropic =   185.1647   Anisotropy =    11.4431

     20  H    Isotropic =    32.0385   Anisotropy =     8.3621

     21  H    Isotropic =    31.9772   Anisotropy =     8.8448

     22  H    Isotropic =    32.3966   Anisotropy =     9.7739

     23  H    Isotropic =    31.9479   Anisotropy =     7.9614

     24  H    Isotropic =    32.1374   Anisotropy =     6.2081

     25  H    Isotropic =    32.3699   Anisotropy =    10.4105

     26  H    Isotropic =    32.1068   Anisotropy =     6.2423

     27  H    Isotropic =    31.9707   Anisotropy =     6.7792

     28  H    Isotropic =    32.2076   Anisotropy =    10.6713

     29  H    Isotropic =    31.3356   Anisotropy =     9.3505

     30  H    Isotropic =    31.5333   Anisotropy =     8.9922

     31  H    Isotropic =    30.5087   Anisotropy =     7.3699

     32  H    Isotropic =    30.3035   Anisotropy =     7.2962

     33  H    Isotropic =    30.0616   Anisotropy =     9.8779

     34  H    Isotropic =    31.1830   Anisotropy =    11.9094

     35  H    Isotropic =    31.2181   Anisotropy =     6.6548

     36  H    Isotropic =    31.0984   Anisotropy =     7.2596

     37  C    Isotropic =   145.2037   Anisotropy =    18.0015

     38  C    Isotropic =    45.6678   Anisotropy =   177.4935

     39  C    Isotropic =    61.6300   Anisotropy =   144.2533

     40  H    Isotropic =    30.0332   Anisotropy =     5.3711

     41  H    Isotropic =    29.6446   Anisotropy =     5.6951

     42  H    Isotropic =    25.7750   Anisotropy =     6.0823

     43  H    Isotropic =    26.6053   Anisotropy =     6.4570

     44  H    Isotropic =    26.6533   Anisotropy =     7.5237

 The electronic state is 1-A.
 Alpha  occ. eigenvalues --  -66.26922 -19.26406 -19.21196 -19.20439 -10.37640
 Alpha  occ. eigenvalues --  -10.32312 -10.30936 -10.25493 -10.25465 -10.24269
 Alpha  occ. eigenvalues --  -10.24046 -10.23979 -10.22859 -10.22680 -10.22262
 Alpha  occ. eigenvalues --  -10.20849 -10.20557 -10.20429  -5.32756  -3.66605
 Alpha  occ. eigenvalues --   -3.66371  -3.66335  -1.13660  -1.05223  -1.04066
 Alpha  occ. eigenvalues --   -0.86128  -0.83549  -0.80636  -0.78019  -0.74137
 Alpha  occ. eigenvalues --   -0.72840  -0.72057  -0.70341  -0.69918  -0.67059
 Alpha  occ. eigenvalues --   -0.63232  -0.62652  -0.58492  -0.55988  -0.53969
 Alpha  occ. eigenvalues --   -0.53083  -0.50651  -0.49600  -0.48463  -0.47642
 Alpha  occ. eigenvalues --   -0.47045  -0.45515  -0.44486  -0.44205  -0.43689
 Alpha  occ. eigenvalues --   -0.42974  -0.42535  -0.42393  -0.41790  -0.41717
 Alpha  occ. eigenvalues --   -0.40806  -0.40347  -0.39972  -0.39620  -0.39327
 Alpha  occ. eigenvalues --   -0.38366  -0.37581  -0.36908  -0.36862  -0.35994
 Alpha  occ. eigenvalues --   -0.35721  -0.34402  -0.33608  -0.32398  -0.31455
 Alpha  occ. eigenvalues --   -0.30343  -0.29104  -0.28468  -0.27253
 Alpha virt. eigenvalues --   -0.00808   0.01049   0.03811   0.05477   0.05709
 Alpha virt. eigenvalues --    0.06270   0.07673   0.08405   0.08433   0.08940
 Alpha virt. eigenvalues --    0.09180   0.10076   0.10388   0.11046   0.11440

 Mulliken charges:
               1
     1  C   -0.034506
     2  C   -0.313866
     3  C    0.175257
     4  C   -0.640121
     5  C    0.471158
     6  H    0.253397
     7  H    0.278845
     8  H    0.281920
     9  H    0.289071
    10  O   -0.320218
    11  O   -0.378342
    12  C   -0.452063
    13  C   -0.678635
    14  C   -0.679334
    15  O   -0.619696
    16  Si   1.419157
    17  C   -1.085899
    18  C   -1.041774
    19  C   -1.060663
    20  H    0.236511
    21  H    0.239082
    22  H    0.235056
    23  H    0.244595
    24  H    0.241527
    25  H    0.237422
    26  H    0.246436
    27  H    0.246283
    28  H    0.247354
    29  H    0.242442
    30  H    0.233082
    31  H    0.260406
    32  H    0.244238
    33  H    0.242161
    34  H    0.234543
    35  H    0.227901
    36  H    0.235813
    37  C   -0.513449
    38  C   -0.173843
    39  C   -0.450880
    40  H    0.253030
    41  H    0.261891
    42  H    0.218834
    43  H    0.224997
    44  H    0.220881
 Sum of Mulliken charges =   0.00000

 Dipole moment (field-independent basis, Debye):
    X=              1.0921    Y=             -3.7006    Z=             -2.9327  Tot=              4.8465
 Quadrupole moment (field-independent basis, Debye-Ang):
   XX=           -121.0977   YY=           -123.1309   ZZ=           -123.9291
   XY=              7.6649   XZ=             11.9114   YZ=             -6.7184

 Normal termination of Gaussian 09 at Thu Mar  8 13:14:13 2018.
