 Gaussian 09, Revision D.01,
 Gaussian 09:  EM64L-G09RevD.01 24-Apr-2013

 --------------------------------------------------------
 #mPW1PW91/6-311g(d) nmr=(giao) scrf=(solvent=chloroform)
 --------------------------------------------------------

 -------------
 P_ng_3ginp002
 -------------
 Symbolic Z-matrix:
 Charge =  0 Multiplicity = 1

                         Standard orientation:
 ---------------------------------------------------------------------
 Center     Atomic      Atomic             Coordinates (Angstroms)
 Number     Number       Type             X           Y           Z
 ---------------------------------------------------------------------
      1          6           0        2.429849   -0.164702    0.073840
      2          6           0        1.138709    0.262318    0.785284
      3          6           0       -0.076861    0.022534   -0.170784
      4          6           0       -0.085065   -1.465748   -0.539107
      5          6           0        1.241606   -2.004753   -1.000861
      6          1           0        2.594712    0.459249   -0.811396
      7          1           0        1.190078    1.331804    1.024671
      8          1           0       -0.400096   -2.083607    0.309031
      9          1           0       -0.808480   -1.647980   -1.342958
     10          8           0        2.352574   -1.525792   -0.401947
     11          8           0        1.306161   -2.931326   -1.803385
     12          6           0        3.716347   -0.063301    0.908903
     13          6           0        4.019881    1.344690    1.394762
     14          6           0        0.964694   -0.452732    2.142445
     15          8           0       -1.235449    0.441169    0.586259
     16         14           0       -2.844950    0.044483    0.358098
     17          6           0       -3.422743    0.176495   -1.419653
     18          6           0       -3.219857   -1.691095    0.980394
     19          6           0       -3.903944    1.237928    1.376653
     20          1           0       -4.300511   -1.859713    1.011375
     21          1           0       -2.779907   -2.448279    0.325917
     22          1           0       -2.821480   -1.830753    1.989558
     23          1           0       -4.965185    0.997361    1.265846
     24          1           0       -3.639597    1.170288    2.435875
     25          1           0       -3.742703    2.266957    1.042669
     26          1           0       -4.495105   -0.031220   -1.487672
     27          1           0       -3.250322    1.183149   -1.811500
     28          1           0       -2.902898   -0.540901   -2.060488
     29          1           0        0.006374   -0.206354    2.609634
     30          1           0        1.026879   -1.540966    2.047825
     31          1           0        1.739541   -0.139849    2.849556
     32          1           0        4.557011   -0.410982    0.293847
     33          1           0        3.684249   -0.757726    1.756529
     34          1           0        4.991674    1.366485    1.898329
     35          1           0        4.057592    2.048505    0.557267
     36          1           0        3.269621    1.696837    2.108217
     37          6           0        0.025614    0.886702   -1.475273
     38          6           0        0.164724    2.368260   -1.236112
     39          6           0        1.160435    3.121221   -1.720477
     40          1           0       -0.876083    0.750888   -2.079939
     41          1           0        0.846681    0.532282   -2.109589
     42          1           0       -0.609586    2.841485   -0.633941
     43          1           0        1.198147    4.187149   -1.514578
     44          1           0        1.952063    2.703823   -2.334956
 ---------------------------------------------------------------------

 SCF Done:  E(RmPW1PW91) =  -1064.37728665     A.U. after   13 cycles

      1  C    Isotropic =   107.0782   Anisotropy =    60.2604

      2  C    Isotropic =   148.2168   Anisotropy =    21.3484

      3  C    Isotropic =   104.8540   Anisotropy =    56.6145

      4  C    Isotropic =   144.1064   Anisotropy =    34.9879

      5  C    Isotropic =     8.6932   Anisotropy =    95.5556

      6  H    Isotropic =    27.9814   Anisotropy =     2.9392

      7  H    Isotropic =    29.8901   Anisotropy =     4.3832

      8  H    Isotropic =    29.2440   Anisotropy =     4.6534

      9  H    Isotropic =    29.5441   Anisotropy =     3.7634

     10  O    Isotropic =   113.7021   Anisotropy =   186.0161

     11  O    Isotropic =  -136.1478   Anisotropy =   601.3697

     12  C    Isotropic =   159.7907   Anisotropy =    26.1631

     13  C    Isotropic =   178.3587   Anisotropy =    15.0938

     14  C    Isotropic =   179.7347   Anisotropy =    15.0571

     15  O    Isotropic =   245.1133   Anisotropy =    19.4608

     16  Si   Isotropic =   334.1910   Anisotropy =    54.5311

     17  C    Isotropic =   185.2160   Anisotropy =     6.7839

     18  C    Isotropic =   184.6615   Anisotropy =    11.1041

     19  C    Isotropic =   186.3126   Anisotropy =    13.2670

     20  H    Isotropic =    32.2762   Anisotropy =    10.4271

     21  H    Isotropic =    32.0264   Anisotropy =     6.3439

     22  H    Isotropic =    31.9489   Anisotropy =     7.3968

     23  H    Isotropic =    32.3392   Anisotropy =     9.7811

     24  H    Isotropic =    31.9596   Anisotropy =     8.5778

     25  H    Isotropic =    32.0121   Anisotropy =     8.5915

     26  H    Isotropic =    32.1520   Anisotropy =    10.4973

     27  H    Isotropic =    31.8791   Anisotropy =     7.2779

     28  H    Isotropic =    31.9428   Anisotropy =     6.4892

     29  H    Isotropic =    30.7110   Anisotropy =     8.1316

     30  H    Isotropic =    31.4331   Anisotropy =     7.5541

     31  H    Isotropic =    31.1564   Anisotropy =     9.6952

     32  H    Isotropic =    30.1727   Anisotropy =     9.2436

     33  H    Isotropic =    30.3174   Anisotropy =     5.8745

     34  H    Isotropic =    30.9850   Anisotropy =    11.9982

     35  H    Isotropic =    31.3788   Anisotropy =     8.4112

     36  H    Isotropic =    31.3144   Anisotropy =     5.8844

     37  C    Isotropic =   141.3984   Anisotropy =    35.4655

     38  C    Isotropic =    44.8396   Anisotropy =   180.3395

     39  C    Isotropic =    64.5993   Anisotropy =   141.9006

     40  H    Isotropic =    29.4584   Anisotropy =     6.4624

     41  H    Isotropic =    29.8276   Anisotropy =     5.3117

     42  H    Isotropic =    25.7093   Anisotropy =     7.0836

     43  H    Isotropic =    26.7009   Anisotropy =     6.8991

     44  H    Isotropic =    26.7701   Anisotropy =     7.2374

 The electronic state is 1-A.
 Alpha  occ. eigenvalues --  -66.27040 -19.26264 -19.21387 -19.20300 -10.37601
 Alpha  occ. eigenvalues --  -10.32292 -10.30537 -10.25521 -10.25146 -10.24647
 Alpha  occ. eigenvalues --  -10.24446 -10.23726 -10.23053 -10.22577 -10.22324
 Alpha  occ. eigenvalues --  -10.20882 -10.20619 -10.20547  -5.32870  -3.66717
 Alpha  occ. eigenvalues --   -3.66484  -3.66451  -1.13585  -1.05076  -1.04164
 Alpha  occ. eigenvalues --   -0.86011  -0.83291  -0.81075  -0.77556  -0.74072
 Alpha  occ. eigenvalues --   -0.73481  -0.71858  -0.70318  -0.69994  -0.66970
 Alpha  occ. eigenvalues --   -0.63316  -0.62142  -0.58721  -0.54994  -0.53511
 Alpha  occ. eigenvalues --   -0.53274  -0.51480  -0.51052  -0.47940  -0.47332
 Alpha  occ. eigenvalues --   -0.46959  -0.45448  -0.45034  -0.44491  -0.43796
 Alpha  occ. eigenvalues --   -0.42821  -0.42785  -0.42408  -0.41422  -0.41073
 Alpha  occ. eigenvalues --   -0.40593  -0.40358  -0.39717  -0.39377  -0.38968
 Alpha  occ. eigenvalues --   -0.38645  -0.37894  -0.37375  -0.37129  -0.36573
 Alpha  occ. eigenvalues --   -0.35345  -0.34500  -0.33302  -0.31938  -0.31254
 Alpha  occ. eigenvalues --   -0.30335  -0.29681  -0.28586  -0.27344
 Alpha virt. eigenvalues --   -0.00730   0.00704   0.03797   0.05314   0.06013
 Alpha virt. eigenvalues --    0.06483   0.07071   0.07928   0.08362   0.08987
 Alpha virt. eigenvalues --    0.09544   0.09898   0.10756   0.10839   0.11530

 Mulliken charges:
               1
     1  C   -0.038066
     2  C   -0.306112
     3  C    0.178041
     4  C   -0.648777
     5  C    0.472591
     6  H    0.255633
     7  H    0.265462
     8  H    0.309184
     9  H    0.267198
    10  O   -0.314542
    11  O   -0.379427
    12  C   -0.471559
    13  C   -0.669275
    14  C   -0.679806
    15  O   -0.630430
    16  Si   1.430999
    17  C   -1.086412
    18  C   -1.067370
    19  C   -1.041106
    20  H    0.239821
    21  H    0.241763
    22  H    0.242579
    23  H    0.235727
    24  H    0.237491
    25  H    0.237541
    26  H    0.247761
    27  H    0.246990
    28  H    0.246858
    29  H    0.261251
    30  H    0.228852
    31  H    0.242738
    32  H    0.240293
    33  H    0.240810
    34  H    0.236585
    35  H    0.231011
    36  H    0.232161
    37  C   -0.506124
    38  C   -0.179280
    39  C   -0.452575
    40  H    0.275532
    41  H    0.249635
    42  H    0.225164
    43  H    0.227603
    44  H    0.223585
 Sum of Mulliken charges =   0.00000

 Dipole moment (field-independent basis, Debye):
    X=             -1.3300    Y=              3.6780    Z=              1.9693  Tot=              4.3789
 Quadrupole moment (field-independent basis, Debye-Ang):
   XX=           -112.9529   YY=           -131.8192   ZZ=           -123.1204
   XY=             10.7899   XZ=              5.6915   YZ=             -9.3438

 Normal termination of Gaussian 09 at Thu Mar  8 13:22:34 2018.
