 Gaussian 09, Revision D.01,
 Gaussian 09:  EM64L-G09RevD.01 24-Apr-2013

 --------------------------------------------------------
 #mPW1PW91/6-311g(d) nmr=(giao) scrf=(solvent=chloroform)
 --------------------------------------------------------

 --------------------
 P_ng_correct1ginp001
 --------------------
 Symbolic Z-matrix:
 Charge =  0 Multiplicity = 1

                         Standard orientation:
 ---------------------------------------------------------------------
 Center     Atomic      Atomic             Coordinates (Angstroms)
 Number     Number       Type             X           Y           Z
 ---------------------------------------------------------------------
      1          6           0       -2.253644   -0.643447   -0.320382
      2          6           0       -0.771885   -0.973152   -0.583294
      3          6           0        0.116870    0.290106   -0.401928
      4          6           0       -0.126393    0.812065    1.016865
      5          6           0       -1.566949    1.122584    1.276731
      6          1           0       -2.681179   -0.135553   -1.193523
      7          1           0       -0.457028   -1.703236    0.172750
      8          1           0        0.166791    0.079360    1.776525
      9          1           0        0.469584    1.710070    1.213708
     10          8           0       -2.471919    0.242460    0.803178
     11          8           0       -1.909747    2.061973    1.987112
     12          6           0       -3.092650   -1.908807   -0.059620
     13          6           0       -4.574697   -1.602267    0.126094
     14          6           0       -0.580919   -1.660355   -1.944671
     15          8           0        1.493569   -0.040239   -0.693176
     16         14           0        2.656362   -0.713416    0.300584
     17          6           0        3.273978    0.515795    1.580462
     18          6           0        2.070877   -2.266108    1.175074
     19          6           0        4.143668   -1.202883   -0.762256
     20          1           0        1.266272   -2.046238    1.881794
     21          1           0        1.705188   -3.001707    0.452586
     22          1           0        2.893444   -2.721549    1.734925
     23          1           0        3.845607   -1.937130   -1.516247
     24          1           0        4.550524   -0.325343   -1.272950
     25          1           0        4.930259   -1.640666   -0.140953
     26          1           0        3.559760    1.456747    1.101153
     27          1           0        2.507290    0.729871    2.329601
     28          1           0        4.150047    0.117027    2.100816
     29          1           0       -1.066273   -2.640879   -1.962113
     30          1           0       -1.007471   -1.066812   -2.759367
     31          1           0        0.476536   -1.831770   -2.166961
     32          1           0       -2.732254   -2.407317    0.848484
     33          1           0       -2.992028   -2.617241   -0.887497
     34          1           0       -5.135647   -2.531841    0.266342
     35          1           0       -4.747951   -0.972819    1.004330
     36          1           0       -4.980973   -1.090332   -0.751964
     37          6           0       -0.242819    1.391107   -1.460734
     38          6           0        0.531225    2.676586   -1.302624
     39          6           0       -0.023959    3.861300   -1.017916
     40          1           0       -1.314914    1.614887   -1.450237
     41          1           0       -0.011432    1.018477   -2.466706
     42          1           0        1.609276    2.615706   -1.442920
     43          1           0        0.589554    4.752131   -0.920335
     44          1           0       -1.093496    3.975278   -0.867121
 ---------------------------------------------------------------------

 SCF Done:  E(RmPW1PW91) =  -1064.37806514     A.U. after   13 cycles

      1  C    Isotropic =   101.3796   Anisotropy =    48.0588

      2  C    Isotropic =   140.5973   Anisotropy =    25.2241

      3  C    Isotropic =   105.1343   Anisotropy =    57.7282

      4  C    Isotropic =   143.4808   Anisotropy =    27.5635

      5  C    Isotropic =    10.3144   Anisotropy =    92.7381

      6  H    Isotropic =    28.1993   Anisotropy =     2.0486

      7  H    Isotropic =    30.0770   Anisotropy =     5.7611

      8  H    Isotropic =    29.7446   Anisotropy =     5.0459

      9  H    Isotropic =    29.0993   Anisotropy =     3.3591

     10  O    Isotropic =   107.4650   Anisotropy =   197.3319

     11  O    Isotropic =  -127.1813   Anisotropy =   577.4743

     12  C    Isotropic =   155.7140   Anisotropy =    26.8742

     13  C    Isotropic =   174.8879   Anisotropy =    21.9403

     14  C    Isotropic =   176.0736   Anisotropy =    20.7168

     15  O    Isotropic =   247.1079   Anisotropy =    18.9793

     16  Si   Isotropic =   335.2900   Anisotropy =    52.4800

     17  C    Isotropic =   185.0692   Anisotropy =    11.1632

     18  C    Isotropic =   185.4404   Anisotropy =     7.3823

     19  C    Isotropic =   186.4374   Anisotropy =    13.1523

     20  H    Isotropic =    32.1157   Anisotropy =     6.0299

     21  H    Isotropic =    31.9717   Anisotropy =     6.8848

     22  H    Isotropic =    32.2100   Anisotropy =    10.6736

     23  H    Isotropic =    32.0009   Anisotropy =     8.3950

     24  H    Isotropic =    31.9519   Anisotropy =     8.9588

     25  H    Isotropic =    32.3620   Anisotropy =     9.7107

     26  H    Isotropic =    31.9344   Anisotropy =     8.1260

     27  H    Isotropic =    32.0787   Anisotropy =     6.2556

     28  H    Isotropic =    32.3229   Anisotropy =    10.3494

     29  H    Isotropic =    31.2494   Anisotropy =     9.3643

     30  H    Isotropic =    31.4669   Anisotropy =     8.6141

     31  H    Isotropic =    30.4642   Anisotropy =     7.3694

     32  H    Isotropic =    30.5561   Anisotropy =     5.0414

     33  H    Isotropic =    30.1998   Anisotropy =     5.6687

     34  H    Isotropic =    30.9903   Anisotropy =    11.2979

     35  H    Isotropic =    30.5211   Anisotropy =     7.9186

     36  H    Isotropic =    31.2126   Anisotropy =     9.1643

     37  C    Isotropic =   144.1807   Anisotropy =    18.7199

     38  C    Isotropic =    44.5265   Anisotropy =   178.9753

     39  C    Isotropic =    63.0930   Anisotropy =   142.8227

     40  H    Isotropic =    30.1638   Anisotropy =     6.1237

     41  H    Isotropic =    29.4342   Anisotropy =     4.2557

     42  H    Isotropic =    25.6837   Anisotropy =     6.8704

     43  H    Isotropic =    26.6726   Anisotropy =     6.8691

     44  H    Isotropic =    26.7948   Anisotropy =     7.3518

 The electronic state is 1-A.
 Alpha  occ. eigenvalues --  -66.27031 -19.26408 -19.21387 -19.20125 -10.37518
 Alpha  occ. eigenvalues --  -10.32240 -10.31027 -10.25547 -10.25260 -10.24271
 Alpha  occ. eigenvalues --  -10.24012 -10.23958 -10.22851 -10.22660 -10.22022
 Alpha  occ. eigenvalues --  -10.20925 -10.20649 -10.20527  -5.32867  -3.66717
 Alpha  occ. eigenvalues --   -3.66482  -3.66446  -1.13555  -1.04978  -1.04196
 Alpha  occ. eigenvalues --   -0.86139  -0.83586  -0.80631  -0.78071  -0.74244
 Alpha  occ. eigenvalues --   -0.72553  -0.72096  -0.70423  -0.70007  -0.66531
 Alpha  occ. eigenvalues --   -0.64139  -0.61888  -0.58703  -0.56456  -0.53895
 Alpha  occ. eigenvalues --   -0.52767  -0.50174  -0.49519  -0.48688  -0.47781
 Alpha  occ. eigenvalues --   -0.46415  -0.45600  -0.44998  -0.44411  -0.43497
 Alpha  occ. eigenvalues --   -0.42825  -0.42586  -0.42120  -0.41797  -0.41402
 Alpha  occ. eigenvalues --   -0.40961  -0.40564  -0.39854  -0.39723  -0.38843
 Alpha  occ. eigenvalues --   -0.38255  -0.38016  -0.36942  -0.36666  -0.36241
 Alpha  occ. eigenvalues --   -0.35755  -0.34360  -0.33664  -0.32375  -0.31449
 Alpha  occ. eigenvalues --   -0.30423  -0.29109  -0.28503  -0.27167
 Alpha virt. eigenvalues --   -0.00466   0.01208   0.03934   0.05642   0.05881
 Alpha virt. eigenvalues --    0.06627   0.07621   0.07925   0.08165   0.08793
 Alpha virt. eigenvalues --    0.09900   0.09961   0.10256   0.10383   0.11229

 Mulliken charges:
               1
     1  C   -0.026811
     2  C   -0.306328
     3  C    0.162375
     4  C   -0.615942
     5  C    0.472326
     6  H    0.248310
     7  H    0.262665
     8  H    0.279278
     9  H    0.289446
    10  O   -0.323778
    11  O   -0.382709
    12  C   -0.449456
    13  C   -0.660670
    14  C   -0.674858
    15  O   -0.627645
    16  Si   1.416319
    17  C   -1.059952
    18  C   -1.081988
    19  C   -1.041554
    20  H    0.245826
    21  H    0.246763
    22  H    0.247480
    23  H    0.237540
    24  H    0.238289
    25  H    0.235757
    26  H    0.243690
    27  H    0.243203
    28  H    0.238052
    29  H    0.240546
    30  H    0.232705
    31  H    0.260604
    32  H    0.231383
    33  H    0.244779
    34  H    0.228128
    35  H    0.238422
    36  H    0.222547
    37  C   -0.505419
    38  C   -0.188281
    39  C   -0.447529
    40  H    0.251196
    41  H    0.263704
    42  H    0.222134
    43  H    0.225602
    44  H    0.223849
 Sum of Mulliken charges =   0.00000

 Dipole moment (field-independent basis, Debye):
    X=              1.8142    Y=             -4.2154    Z=             -2.3586  Tot=              5.1598
 Quadrupole moment (field-independent basis, Debye-Ang):
   XX=           -121.0798   YY=           -121.5864   ZZ=           -124.7020
   XY=              8.2921   XZ=             11.3842   YZ=             -6.3072

 Normal termination of Gaussian 09 at Thu Mar  8 13:18:49 2018.
