 Gaussian 09, Revision D.01,
 Gaussian 09:  EM64L-G09RevD.01 24-Apr-2013

 --------------------------------------------------------
 #mPW1PW91/6-311g(d) nmr=(giao) scrf=(solvent=chloroform)
 --------------------------------------------------------

 --------------------
 P_ng_correct1ginp011
 --------------------
 Symbolic Z-matrix:
 Charge =  0 Multiplicity = 1

                         Standard orientation:
 ---------------------------------------------------------------------
 Center     Atomic      Atomic             Coordinates (Angstroms)
 Number     Number       Type             X           Y           Z
 ---------------------------------------------------------------------
      1          6           0        2.460021    0.306781    0.023086
      2          6           0        1.147220    0.351676    0.810623
      3          6           0       -0.050327   -0.036139   -0.116313
      4          6           0        0.250072   -1.474537   -0.568136
      5          6           0        1.616308   -1.688455   -1.153141
      6          1           0        2.465699    1.102134   -0.731661
      7          1           0        1.178580   -0.429889    1.584672
      8          1           0        0.136193   -2.175507    0.268370
      9          1           0       -0.464819   -1.780880   -1.337937
     10          8           0        2.631913   -0.930087   -0.702183
     11          8           0        1.819778   -2.588277   -1.964118
     12          6           0        3.733117    0.507409    0.865693
     13          6           0        3.942472   -0.543943    1.948404
     14          6           0        0.982550    1.666372    1.586213
     15          8           0       -1.198631   -0.020826    0.761868
     16         14           0       -2.801863   -0.367354    0.435344
     17          6           0       -3.078117   -1.773896   -0.771287
     18          6           0       -3.642495   -0.864337    2.059594
     19          6           0       -3.718950    1.144527   -0.209933
     20          1           0       -3.167976   -1.759078    2.472659
     21          1           0       -3.559586   -0.055922    2.791677
     22          1           0       -4.702265   -1.076491    1.891602
     23          1           0       -4.792642    0.942045   -0.268347
     24          1           0       -3.567567    1.998818    0.456205
     25          1           0       -3.372120    1.416892   -1.210230
     26          1           0       -2.722030   -1.512677   -1.771704
     27          1           0       -2.565107   -2.681500   -0.440449
     28          1           0       -4.145672   -2.002479   -0.849132
     29          1           0        1.221370    2.539608    0.974216
     30          1           0       -0.028501    1.786631    1.985969
     31          1           0        1.662145    1.687575    2.445450
     32          1           0        3.738391    1.503902    1.320434
     33          1           0        4.601079    0.463845    0.195099
     34          1           0        3.939491   -1.555262    1.530598
     35          1           0        4.908867   -0.386642    2.438536
     36          1           0        3.169592   -0.485101    2.719934
     37          6           0       -0.231652    0.869004   -1.380656
     38          6           0       -0.410114    2.342640   -1.139459
     39          6           0        0.294921    3.295595   -1.763201
     40          1           0       -1.115908    0.534809   -1.936968
     41          1           0        0.610700    0.717511   -2.067293
     42          1           0       -1.169239    2.642596   -0.420058
     43          1           0        0.114796    4.345672   -1.551199
     44          1           0        1.057953    3.059671   -2.498720
 ---------------------------------------------------------------------

 SCF Done:  E(RmPW1PW91) =  -1064.37545041     A.U. after   13 cycles

      1  C    Isotropic =   106.2508   Anisotropy =    61.0600

      2  C    Isotropic =   142.3024   Anisotropy =    23.2798

      3  C    Isotropic =   105.8315   Anisotropy =    57.2288

      4  C    Isotropic =   137.6745   Anisotropy =    32.9043

      5  C    Isotropic =     9.3291   Anisotropy =    95.6594

      6  H    Isotropic =    27.7404   Anisotropy =     3.4411

      7  H    Isotropic =    29.7857   Anisotropy =     5.1220

      8  H    Isotropic =    29.6217   Anisotropy =     4.2160

      9  H    Isotropic =    29.2838   Anisotropy =     4.7441

     10  O    Isotropic =   101.6911   Anisotropy =   177.2463

     11  O    Isotropic =  -122.1274   Anisotropy =   576.6618

     12  C    Isotropic =   160.3377   Anisotropy =    22.4320

     13  C    Isotropic =   181.1042   Anisotropy =    11.8304

     14  C    Isotropic =   175.8848   Anisotropy =    13.5272

     15  O    Isotropic =   243.2243   Anisotropy =    31.5459

     16  Si   Isotropic =   334.3935   Anisotropy =    55.7069

     17  C    Isotropic =   184.4343   Anisotropy =     9.7774

     18  C    Isotropic =   185.6226   Anisotropy =    13.2939

     19  C    Isotropic =   184.6318   Anisotropy =     9.8806

     20  H    Isotropic =    32.0509   Anisotropy =     8.3692

     21  H    Isotropic =    31.9250   Anisotropy =     8.5175

     22  H    Isotropic =    32.3487   Anisotropy =     9.7075

     23  H    Isotropic =    32.2514   Anisotropy =    10.1524

     24  H    Isotropic =    31.8620   Anisotropy =     7.7867

     25  H    Isotropic =    32.0262   Anisotropy =     6.3216

     26  H    Isotropic =    31.9383   Anisotropy =     6.2277

     27  H    Isotropic =    31.8402   Anisotropy =     7.1401

     28  H    Isotropic =    32.1345   Anisotropy =    10.4135

     29  H    Isotropic =    31.2021   Anisotropy =     7.8705

     30  H    Isotropic =    30.4298   Anisotropy =     6.6114

     31  H    Isotropic =    31.4023   Anisotropy =     9.7434

     32  H    Isotropic =    30.2995   Anisotropy =     6.6098

     33  H    Isotropic =    30.0918   Anisotropy =     9.3986

     34  H    Isotropic =    31.0833   Anisotropy =     7.7383

     35  H    Isotropic =    31.2189   Anisotropy =    11.9921

     36  H    Isotropic =    31.2628   Anisotropy =     6.6569

     37  C    Isotropic =   142.4975   Anisotropy =    32.3032

     38  C    Isotropic =    42.1897   Anisotropy =   185.7023

     39  C    Isotropic =    65.8790   Anisotropy =   140.5056

     40  H    Isotropic =    29.5159   Anisotropy =     4.5322

     41  H    Isotropic =    29.5759   Anisotropy =     4.9864

     42  H    Isotropic =    25.5491   Anisotropy =     6.5215

     43  H    Isotropic =    26.8307   Anisotropy =     7.1363

     44  H    Isotropic =    26.7669   Anisotropy =     7.1635

 The electronic state is 1-A.
 Alpha  occ. eigenvalues --  -66.27073 -19.26402 -19.21518 -19.19825 -10.37342
 Alpha  occ. eigenvalues --  -10.32311 -10.30639 -10.25249 -10.25188 -10.25099
 Alpha  occ. eigenvalues --  -10.24577 -10.23801 -10.23053 -10.22238 -10.22094
 Alpha  occ. eigenvalues --  -10.20892 -10.20559 -10.20545  -5.32898  -3.66744
 Alpha  occ. eigenvalues --   -3.66513  -3.66481  -1.13577  -1.04797  -1.04252
 Alpha  occ. eigenvalues --   -0.86099  -0.83369  -0.81074  -0.77642  -0.73991
 Alpha  occ. eigenvalues --   -0.73242  -0.72174  -0.70353  -0.69926  -0.67024
 Alpha  occ. eigenvalues --   -0.63087  -0.62660  -0.58997  -0.56027  -0.53321
 Alpha  occ. eigenvalues --   -0.52452  -0.51151  -0.49333  -0.48695  -0.47353
 Alpha  occ. eigenvalues --   -0.46665  -0.45584  -0.44970  -0.44337  -0.43967
 Alpha  occ. eigenvalues --   -0.42981  -0.42491  -0.42421  -0.41702  -0.41071
 Alpha  occ. eigenvalues --   -0.40798  -0.40717  -0.40229  -0.39729  -0.39159
 Alpha  occ. eigenvalues --   -0.37987  -0.37578  -0.37297  -0.36544  -0.36402
 Alpha  occ. eigenvalues --   -0.35509  -0.34533  -0.33603  -0.31727  -0.31239
 Alpha  occ. eigenvalues --   -0.30401  -0.29684  -0.28311  -0.27147
 Alpha virt. eigenvalues --   -0.00256   0.00555   0.03875   0.05665   0.05826
 Alpha virt. eigenvalues --    0.06174   0.07027   0.08352   0.08682   0.09163
 Alpha virt. eigenvalues --    0.09346   0.10056   0.10502   0.10850   0.11155

 Mulliken charges:
               1
     1  C   -0.032732
     2  C   -0.298927
     3  C    0.177176
     4  C   -0.616115
     5  C    0.483446
     6  H    0.255375
     7  H    0.256477
     8  H    0.291863
     9  H    0.276860
    10  O   -0.317197
    11  O   -0.389788
    12  C   -0.456933
    13  C   -0.672970
    14  C   -0.698052
    15  O   -0.621382
    16  Si   1.397729
    17  C   -1.081948
    18  C   -1.038557
    19  C   -1.064883
    20  H    0.236118
    21  H    0.236930
    22  H    0.234161
    23  H    0.241669
    24  H    0.241777
    25  H    0.245706
    26  H    0.247787
    27  H    0.250241
    28  H    0.248834
    29  H    0.244690
    30  H    0.259766
    31  H    0.238619
    32  H    0.245245
    33  H    0.240163
    34  H    0.236219
    35  H    0.232842
    36  H    0.227773
    37  C   -0.534953
    38  C   -0.171428
    39  C   -0.456877
    40  H    0.261866
    41  H    0.256277
    42  H    0.235959
    43  H    0.227316
    44  H    0.223861
 Sum of Mulliken charges =   0.00000

 Dipole moment (field-independent basis, Debye):
    X=             -1.9649    Y=              3.5506    Z=              2.2530  Tot=              4.6415
 Quadrupole moment (field-independent basis, Debye-Ang):
   XX=           -117.8071   YY=           -126.2061   ZZ=           -125.2470
   XY=             11.8688   XZ=              8.6306   YZ=             -8.6563

 Normal termination of Gaussian 09 at Thu Mar  8 13:15:45 2018.
