 Gaussian 09, Revision D.01,
 Gaussian 09:  EM64L-G09RevD.01 24-Apr-2013

 --------------------------------------------------------
 #mPW1PW91/6-311g(d) nmr=(giao) scrf=(solvent=chloroform)
 --------------------------------------------------------

 -------------
 P_ng_4ginp007
 -------------
 Symbolic Z-matrix:
 Charge =  0 Multiplicity = 1

                         Standard orientation:
 ---------------------------------------------------------------------
 Center     Atomic      Atomic             Coordinates (Angstroms)
 Number     Number       Type             X           Y           Z
 ---------------------------------------------------------------------
      1          6           0       -2.452634    0.293602    0.256573
      2          6           0       -1.096976    0.326862    0.974969
      3          6           0        0.046342    0.125283   -0.072945
      4          6           0       -0.203373   -1.224601   -0.757773
      5          6           0       -1.605648   -1.417550   -1.267641
      6          1           0       -2.523902    1.143518   -0.431480
      7          1           0       -0.972621    1.304497    1.457905
      8          1           0        0.471605   -1.341689   -1.613751
      9          1           0        0.007775   -2.059888   -0.080982
     10          8           0       -2.615638   -0.897351   -0.539043
     11          8           0       -1.833010   -2.121589   -2.247231
     12          6           0       -3.656986    0.394989    1.206970
     13          6           0       -4.967640    0.596966    0.454445
     14          6           0       -1.027125   -0.698827    2.127363
     15          8           0        1.266216    0.169134    0.698127
     16         14           0        2.783078   -0.417978    0.310362
     17          6           0        2.882802   -2.275188    0.606596
     18          6           0        3.327971   -0.074148   -1.449089
     19          6           0        4.052544    0.394218    1.454793
     20          1           0        4.339253   -0.458774   -1.614343
     21          1           0        2.666781   -0.556063   -2.174045
     22          1           0        3.342957    1.000027   -1.651746
     23          1           0        3.811345    0.182527    2.500457
     24          1           0        5.056132    0.013509    1.244415
     25          1           0        4.053552    1.478514    1.310581
     26          1           0        2.290939   -2.823015   -0.131505
     27          1           0        3.919078   -2.617985    0.531021
     28          1           0        2.509885   -2.523879    1.604426
     29          1           0       -1.719112   -0.424388    2.930655
     30          1           0       -1.288029   -1.709233    1.798530
     31          1           0       -0.031516   -0.734047    2.579840
     32          1           0       -3.515969    1.231237    1.901139
     33          1           0       -3.755949   -0.524155    1.795824
     34          1           0       -5.798543    0.681811    1.162027
     35          1           0       -4.938452    1.512735   -0.144501
     36          1           0       -5.178351   -0.244729   -0.212579
     37          6           0        0.076187    1.262441   -1.154801
     38          6           0        0.208988    2.667017   -0.620754
     39          6           0        1.238301    3.480813   -0.888828
     40          1           0       -0.827800    1.229846   -1.773901
     41          1           0        0.897015    1.073751   -1.854899
     42          1           0       -0.596823    3.047578    0.002288
     43          1           0        1.271403    4.486559   -0.480389
     44          1           0        2.069163    3.170619   -1.514130
 ---------------------------------------------------------------------

 SCF Done:  E(RmPW1PW91) =  -1064.37568399     A.U. after   12 cycles

      1  C    Isotropic =   105.7937   Anisotropy =    40.6499

      2  C    Isotropic =   144.4586   Anisotropy =    29.1371

      3  C    Isotropic =   104.4790   Anisotropy =    52.4781

      4  C    Isotropic =   144.3704   Anisotropy =    35.0219

      5  C    Isotropic =     9.1261   Anisotropy =    94.4700

      6  H    Isotropic =    27.9170   Anisotropy =     3.7146

      7  H    Isotropic =    29.9333   Anisotropy =     5.4158

      8  H    Isotropic =    29.5560   Anisotropy =     3.7476

      9  H    Isotropic =    29.1993   Anisotropy =     4.3917

     10  O    Isotropic =   119.1028   Anisotropy =   202.2622

     11  O    Isotropic =  -133.9421   Anisotropy =   598.8376

     12  C    Isotropic =   156.8422   Anisotropy =    21.9406

     13  C    Isotropic =   174.1805   Anisotropy =    23.0426

     14  C    Isotropic =   177.9396   Anisotropy =    15.0573

     15  O    Isotropic =   244.6910   Anisotropy =    23.3186

     16  Si   Isotropic =   335.0820   Anisotropy =    53.9280

     17  C    Isotropic =   184.7511   Anisotropy =    11.3378

     18  C    Isotropic =   184.3732   Anisotropy =     6.2290

     19  C    Isotropic =   186.5427   Anisotropy =    13.1063

     20  H    Isotropic =    32.1453   Anisotropy =    10.4125

     21  H    Isotropic =    31.9162   Anisotropy =     6.2108

     22  H    Isotropic =    31.7846   Anisotropy =     7.7413

     23  H    Isotropic =    32.0312   Anisotropy =     8.7121

     24  H    Isotropic =    32.4228   Anisotropy =     9.7664

     25  H    Isotropic =    32.0512   Anisotropy =     8.3468

     26  H    Isotropic =    32.0835   Anisotropy =     6.2844

     27  H    Isotropic =    32.3335   Anisotropy =    10.3713

     28  H    Isotropic =    31.9818   Anisotropy =     7.5936

     29  H    Isotropic =    31.0291   Anisotropy =     9.7836

     30  H    Isotropic =    31.3443   Anisotropy =     7.0553

     31  H    Isotropic =    30.6655   Anisotropy =     7.8704

     32  H    Isotropic =    30.5643   Anisotropy =     7.0010

     33  H    Isotropic =    30.1317   Anisotropy =     4.4705

     34  H    Isotropic =    30.9287   Anisotropy =    11.3790

     35  H    Isotropic =    31.1909   Anisotropy =     8.7928

     36  H    Isotropic =    30.5749   Anisotropy =     8.0742

     37  C    Isotropic =   142.5156   Anisotropy =    34.5394

     38  C    Isotropic =    46.1639   Anisotropy =   177.1054

     39  C    Isotropic =    62.9974   Anisotropy =   143.1179

     40  H    Isotropic =    29.6629   Anisotropy =     4.8925

     41  H    Isotropic =    29.6161   Anisotropy =     4.2105

     42  H    Isotropic =    25.8701   Anisotropy =     7.2972

     43  H    Isotropic =    26.6653   Anisotropy =     6.5390

     44  H    Isotropic =    26.6718   Anisotropy =     6.5326

 The electronic state is 1-A.
 Alpha  occ. eigenvalues --  -66.26931 -19.26490 -19.21226 -19.20331 -10.37702
 Alpha  occ. eigenvalues --  -10.32277 -10.30696 -10.25548 -10.25290 -10.24711
 Alpha  occ. eigenvalues --  -10.24505 -10.23882 -10.23073 -10.22343 -10.22032
 Alpha  occ. eigenvalues --  -10.20847 -10.20477 -10.20451  -5.32759  -3.66605
 Alpha  occ. eigenvalues --   -3.66374  -3.66341  -1.13747  -1.05160  -1.04073
 Alpha  occ. eigenvalues --   -0.86002  -0.83329  -0.81141  -0.77722  -0.74037
 Alpha  occ. eigenvalues --   -0.73327  -0.71464  -0.70283  -0.69874  -0.66600
 Alpha  occ. eigenvalues --   -0.64239  -0.62415  -0.58597  -0.55164  -0.53660
 Alpha  occ. eigenvalues --   -0.53429  -0.51270  -0.49767  -0.48404  -0.47716
 Alpha  occ. eigenvalues --   -0.47022  -0.45544  -0.45099  -0.44318  -0.43559
 Alpha  occ. eigenvalues --   -0.42764  -0.42749  -0.42351  -0.42043  -0.40938
 Alpha  occ. eigenvalues --   -0.40721  -0.40194  -0.39882  -0.39600  -0.39044
 Alpha  occ. eigenvalues --   -0.38636  -0.37288  -0.37053  -0.36702  -0.36427
 Alpha  occ. eigenvalues --   -0.35730  -0.34409  -0.33460  -0.31750  -0.31271
 Alpha  occ. eigenvalues --   -0.30386  -0.29624  -0.28442  -0.27480
 Alpha virt. eigenvalues --   -0.00928   0.00967   0.03946   0.05149   0.06124
 Alpha virt. eigenvalues --    0.06561   0.07609   0.07976   0.08480   0.08636
 Alpha virt. eigenvalues --    0.09048   0.09741   0.10662   0.11076   0.11246

 Mulliken charges:
               1
     1  C   -0.055331
     2  C   -0.308625
     3  C    0.200570
     4  C   -0.650136
     5  C    0.476439
     6  H    0.256710
     7  H    0.257185
     8  H    0.267718
     9  H    0.308839
    10  O   -0.312864
    11  O   -0.379125
    12  C   -0.460957
    13  C   -0.661865
    14  C   -0.683133
    15  O   -0.626104
    16  Si   1.428844
    17  C   -1.065368
    18  C   -1.092149
    19  C   -1.038820
    20  H    0.246978
    21  H    0.246410
    22  H    0.251046
    23  H    0.237036
    24  H    0.234077
    25  H    0.239260
    26  H    0.240405
    27  H    0.239290
    28  H    0.242079
    29  H    0.243996
    30  H    0.229395
    31  H    0.262290
    32  H    0.239708
    33  H    0.244916
    34  H    0.229208
    35  H    0.221878
    36  H    0.237441
    37  C   -0.531911
    38  C   -0.146131
    39  C   -0.466209
    40  H    0.258149
    41  H    0.266962
    42  H    0.216972
    43  H    0.226375
    44  H    0.228549
 Sum of Mulliken charges =   0.00000

 Dipole moment (field-independent basis, Debye):
    X=              1.6015    Y=              2.8009    Z=              2.7079  Tot=              4.2122
 Quadrupole moment (field-independent basis, Debye-Ang):
   XX=           -118.1855   YY=           -122.9146   ZZ=           -126.5104
   XY=            -10.3018   XZ=            -12.7049   YZ=             -7.4048

 Normal termination of Gaussian 09 at Thu Mar  8 13:53:30 2018.
