 Gaussian 09, Revision D.01,
 Gaussian 09:  EM64L-G09RevD.01 24-Apr-2013

 --------------------------------------------------------
 #mPW1PW91/6-311g(d) nmr=(giao) scrf=(solvent=chloroform)
 --------------------------------------------------------

 --------------------
 P_ng_correct1ginp018
 --------------------
 Symbolic Z-matrix:
 Charge =  0 Multiplicity = 1

                         Standard orientation:
 ---------------------------------------------------------------------
 Center     Atomic      Atomic             Coordinates (Angstroms)
 Number     Number       Type             X           Y           Z
 ---------------------------------------------------------------------
      1          6           0        2.456259   -0.605459    0.271133
      2          6           0        1.053981   -1.232507    0.190959
      3          6           0       -0.073374   -0.151511    0.118362
      4          6           0        0.262539    0.690039   -1.113976
      5          6           0        1.619949    1.314712   -1.065986
      6          1           0        2.692320   -0.367105    1.315280
      7          1           0        0.993550   -1.814064   -0.742248
      8          1           0        0.206477    0.082803   -2.026526
      9          1           0       -0.463173    1.497526   -1.244627
     10          8           0        2.604441    0.636104   -0.452151
     11          8           0        1.852160    2.381997   -1.627236
     12          6           0        3.543418   -1.564698   -0.248928
     13          6           0        4.950961   -1.007981   -0.067357
     14          6           0        0.840509   -2.250913    1.326404
     15          8           0       -1.251383   -0.953326   -0.122036
     16         14           0       -2.848737   -0.510072   -0.297875
     17          6           0       -3.697231   -0.301862    1.367075
     18          6           0       -3.138132    1.010782   -1.349061
     19          6           0       -3.752075   -1.936804   -1.173895
     20          1           0       -4.209490    1.154656   -1.521017
     21          1           0       -2.757722    1.915998   -0.870576
     22          1           0       -2.654573    0.906137   -2.324855
     23          1           0       -3.318920   -2.104175   -2.164119
     24          1           0       -3.658417   -2.856597   -0.589599
     25          1           0       -4.813488   -1.699662   -1.289350
     26          1           0       -3.297540    0.549286    1.922081
     27          1           0       -4.770784   -0.140969    1.229609
     28          1           0       -3.562457   -1.200128    1.977029
     29          1           0        1.567980   -3.066104    1.267772
     30          1           0        0.946083   -1.784659    2.311134
     31          1           0       -0.152159   -2.708916    1.274423
     32          1           0        3.387341   -1.749882   -1.318773
     33          1           0        3.485508   -2.529648    0.264311
     34          1           0        5.690616   -1.735571   -0.416532
     35          1           0        5.094688   -0.085690   -0.638566
     36          1           0        5.154783   -0.796851    0.987158
     37          6           0       -0.139758    0.650041    1.461669
     38          6           0       -0.698262    2.048383    1.395444
     39          6           0        0.041979    3.156627    1.531348
     40          1           0        0.860612    0.726030    1.902455
     41          1           0       -0.737229    0.090399    2.192450
     42          1           0       -1.768959    2.165755    1.260603
     43          1           0       -0.416630    4.140506    1.485871
     44          1           0        1.117582    3.120629    1.679098
 ---------------------------------------------------------------------

 SCF Done:  E(RmPW1PW91) =  -1064.37392690     A.U. after   13 cycles

      1  C    Isotropic =   101.7264   Anisotropy =    47.8880

      2  C    Isotropic =   136.0695   Anisotropy =    33.0563

      3  C    Isotropic =   107.2631   Anisotropy =    56.0770

      4  C    Isotropic =   142.6926   Anisotropy =    29.5458

      5  C    Isotropic =    11.0813   Anisotropy =    92.6430

      6  H    Isotropic =    28.1395   Anisotropy =     1.7578

      7  H    Isotropic =    30.0920   Anisotropy =     3.8806

      8  H    Isotropic =    29.8193   Anisotropy =     4.4269

      9  H    Isotropic =    29.2363   Anisotropy =     4.3187

     10  O    Isotropic =   104.1736   Anisotropy =   209.6375

     11  O    Isotropic =  -113.1004   Anisotropy =   560.9864

     12  C    Isotropic =   155.0844   Anisotropy =    27.9790

     13  C    Isotropic =   174.6551   Anisotropy =    22.1574

     14  C    Isotropic =   175.4148   Anisotropy =    23.0441

     15  O    Isotropic =   230.8243   Anisotropy =    52.2665

     16  Si   Isotropic =   334.9354   Anisotropy =    56.1591

     17  C    Isotropic =   185.8350   Anisotropy =    10.8670

     18  C    Isotropic =   185.2770   Anisotropy =     9.0679

     19  C    Isotropic =   185.1261   Anisotropy =    14.1551

     20  H    Isotropic =    32.1372   Anisotropy =    10.4255

     21  H    Isotropic =    31.8438   Anisotropy =     7.0202

     22  H    Isotropic =    31.9082   Anisotropy =     7.0876

     23  H    Isotropic =    32.1146   Anisotropy =     8.3306

     24  H    Isotropic =    31.9987   Anisotropy =     8.4932

     25  H    Isotropic =    32.3703   Anisotropy =     9.6153

     26  H    Isotropic =    31.9488   Anisotropy =     6.8677

     27  H    Isotropic =    32.2778   Anisotropy =    10.1980

     28  H    Isotropic =    31.8896   Anisotropy =     8.0166

     29  H    Isotropic =    31.2726   Anisotropy =     9.7480

     30  H    Isotropic =    31.5148   Anisotropy =     7.3492

     31  H    Isotropic =    30.3534   Anisotropy =     7.8833

     32  H    Isotropic =    30.5527   Anisotropy =     5.3580

     33  H    Isotropic =    30.2094   Anisotropy =     5.9388

     34  H    Isotropic =    30.9865   Anisotropy =    11.3241

     35  H    Isotropic =    30.4832   Anisotropy =     7.7455

     36  H    Isotropic =    31.1895   Anisotropy =     8.9479

     37  C    Isotropic =   146.7767   Anisotropy =    23.3577

     38  C    Isotropic =    46.7875   Anisotropy =   175.0526

     39  C    Isotropic =    59.7785   Anisotropy =   146.9915

     40  H    Isotropic =    29.6931   Anisotropy =     5.3477

     41  H    Isotropic =    29.4697   Anisotropy =     3.8982

     42  H    Isotropic =    25.7602   Anisotropy =     5.8774

     43  H    Isotropic =    26.6148   Anisotropy =     6.7193

     44  H    Isotropic =    26.7340   Anisotropy =     7.3072

 The electronic state is 1-A.
 Alpha  occ. eigenvalues --  -66.26972 -19.26421 -19.21374 -19.19531 -10.37183
 Alpha  occ. eigenvalues --  -10.32240 -10.30804 -10.25292 -10.24931 -10.24874
 Alpha  occ. eigenvalues --  -10.24594 -10.23846 -10.23265 -10.22630 -10.21954
 Alpha  occ. eigenvalues --  -10.20809 -10.20586 -10.20422  -5.32804  -3.66651
 Alpha  occ. eigenvalues --   -3.66423  -3.66382  -1.13495  -1.04591  -1.04254
 Alpha  occ. eigenvalues --   -0.86069  -0.83586  -0.80928  -0.77874  -0.73982
 Alpha  occ. eigenvalues --   -0.72941  -0.72204  -0.70384  -0.69791  -0.66670
 Alpha  occ. eigenvalues --   -0.64374  -0.61773  -0.59080  -0.55875  -0.53555
 Alpha  occ. eigenvalues --   -0.52815  -0.50339  -0.49366  -0.49079  -0.47900
 Alpha  occ. eigenvalues --   -0.46485  -0.45383  -0.45005  -0.44273  -0.43706
 Alpha  occ. eigenvalues --   -0.42624  -0.42533  -0.42114  -0.41945  -0.41266
 Alpha  occ. eigenvalues --   -0.41089  -0.40307  -0.39710  -0.39438  -0.38873
 Alpha  occ. eigenvalues --   -0.38566  -0.37916  -0.36899  -0.36517  -0.35992
 Alpha  occ. eigenvalues --   -0.35651  -0.34504  -0.33883  -0.31663  -0.31034
 Alpha  occ. eigenvalues --   -0.30303  -0.29577  -0.28385  -0.27353
 Alpha virt. eigenvalues --    0.00094   0.00452   0.04073   0.05656   0.06066
 Alpha virt. eigenvalues --    0.06594   0.07191   0.07856   0.08412   0.08716
 Alpha virt. eigenvalues --    0.09145   0.09988   0.10664   0.10842   0.11209

 Mulliken charges:
               1
     1  C   -0.027056
     2  C   -0.316837
     3  C    0.188231
     4  C   -0.617075
     5  C    0.498253
     6  H    0.242791
     7  H    0.250009
     8  H    0.288578
     9  H    0.285470
    10  O   -0.320940
    11  O   -0.394209
    12  C   -0.440127
    13  C   -0.662685
    14  C   -0.670189
    15  O   -0.616314
    16  Si   1.403192
    17  C   -1.071292
    18  C   -1.084796
    19  C   -1.038222
    20  H    0.247899
    21  H    0.251910
    22  H    0.249458
    23  H    0.235413
    24  H    0.234932
    25  H    0.233225
    26  H    0.251391
    27  H    0.239680
    28  H    0.242118
    29  H    0.238641
    30  H    0.229317
    31  H    0.260418
    32  H    0.232360
    33  H    0.241582
    34  H    0.228124
    35  H    0.238799
    36  H    0.221995
    37  C   -0.543889
    38  C   -0.211640
    39  C   -0.441905
    40  H    0.265365
    41  H    0.279216
    42  H    0.221103
    43  H    0.229554
    44  H    0.228152
 Sum of Mulliken charges =   0.00000

 Dipole moment (field-independent basis, Debye):
    X=             -1.8113    Y=             -3.5518    Z=              2.3621  Tot=              4.6342
 Quadrupole moment (field-independent basis, Debye-Ang):
   XX=           -118.1513   YY=           -126.8156   ZZ=           -121.0249
   XY=            -13.8706   XZ=              6.4610   YZ=              6.3423

 Normal termination of Gaussian 09 at Thu Mar  8 13:17:11 2018.
