 Gaussian 09, Revision D.01,
 Gaussian 09:  EM64L-G09RevD.01 24-Apr-2013

 --------------------------------------------------------
 #mPW1PW91/6-311g(d) nmr=(giao) scrf=(solvent=chloroform)
 --------------------------------------------------------

 -------------
 P_ng_2ginp003
 -------------
 Symbolic Z-matrix:
 Charge =  0 Multiplicity = 1

                         Standard orientation:
 ---------------------------------------------------------------------
 Center     Atomic      Atomic             Coordinates (Angstroms)
 Number     Number       Type             X           Y           Z
 ---------------------------------------------------------------------
      1          6           0       -2.402182    0.103097   -0.314573
      2          6           0       -1.028717    0.356117   -0.952479
      3          6           0        0.114792    0.020299    0.057164
      4          6           0       -0.065193   -1.470215    0.377306
      5          6           0       -1.428950   -1.826186    0.886164
      6          1           0       -2.612010    0.871609    0.439159
      7          1           0       -0.908234   -0.350522   -1.788844
      8          1           0        0.121110   -2.087640   -0.510125
      9          1           0        0.658026   -1.784078    1.139143
     10          8           0       -2.482620   -1.168959    0.368341
     11          8           0       -1.589298   -2.748116    1.680714
     12          6           0       -3.548131    0.132272   -1.342804
     13          6           0       -4.915651   -0.086422   -0.704695
     14          6           0       -0.941140    1.748015   -1.596870
     15          8           0        1.336559    0.275781   -0.671823
     16         14           0        2.885129   -0.280949   -0.372005
     17          6           0        3.101169   -2.051286   -0.972344
     18          6           0        4.104102    0.788800   -1.347496
     19          6           0        3.397631   -0.196524    1.428178
     20          1           0        3.879496    0.741223   -2.416929
     21          1           0        4.036277    1.831440   -1.023801
     22          1           0        5.129097    0.440758   -1.190541
     23          1           0        3.291555    0.820372    1.816936
     24          1           0        2.795899   -0.870306    2.044231
     25          1           0        4.445824   -0.490948    1.539439
     26          1           0        2.528963   -2.749412   -0.355554
     27          1           0        2.763765   -2.148097   -2.008393
     28          1           0        4.154397   -2.343962   -0.925426
     29          1           0       -1.527745    1.778043   -2.521562
     30          1           0       -1.337761    2.528254   -0.942292
     31          1           0        0.083327    2.012997   -1.874000
     32          1           0       -3.391273   -0.654111   -2.091021
     33          1           0       -3.569024    1.091796   -1.869061
     34          1           0       -5.700617   -0.010904   -1.464020
     35          1           0       -4.991056   -1.076685   -0.245115
     36          1           0       -5.113511    0.667602    0.063711
     37          6           0        0.068741    0.848515    1.384673
     38          6           0        0.285140    2.331537    1.254642
     39          6           0       -0.521393    3.258259    1.788094
     40          1           0        0.850177    0.484424    2.059969
     41          1           0       -0.871857    0.660180    1.915950
     42          1           0        1.166215    2.656069    0.703617
     43          1           0       -0.305267    4.315789    1.666636
     44          1           0       -1.406003    2.992077    2.358343
 ---------------------------------------------------------------------

 SCF Done:  E(RmPW1PW91) =  -1064.37665403     A.U. after   13 cycles

      1  C    Isotropic =   102.3669   Anisotropy =    50.0515

      2  C    Isotropic =   136.8607   Anisotropy =    29.0743

      3  C    Isotropic =   105.9454   Anisotropy =    57.5716

      4  C    Isotropic =   138.0911   Anisotropy =    27.6741

      5  C    Isotropic =    10.4237   Anisotropy =    93.4945

      6  H    Isotropic =    28.0770   Anisotropy =     2.3406

      7  H    Isotropic =    30.0196   Anisotropy =     3.6339

      8  H    Isotropic =    29.4631   Anisotropy =     5.0153

      9  H    Isotropic =    29.4193   Anisotropy =     3.8889

     10  O    Isotropic =   105.6620   Anisotropy =   199.8362

     11  O    Isotropic =  -122.7486   Anisotropy =   578.8328

     12  C    Isotropic =   156.4734   Anisotropy =    25.3874

     13  C    Isotropic =   174.9758   Anisotropy =    21.4019

     14  C    Isotropic =   174.4069   Anisotropy =    14.5533

     15  O    Isotropic =   246.1055   Anisotropy =    20.6388

     16  Si   Isotropic =   333.9638   Anisotropy =    53.9899

     17  C    Isotropic =   184.2692   Anisotropy =    11.7896

     18  C    Isotropic =   186.2601   Anisotropy =    13.0731

     19  C    Isotropic =   185.1588   Anisotropy =     7.0465

     20  H    Isotropic =    31.9278   Anisotropy =     8.6653

     21  H    Isotropic =    31.9433   Anisotropy =     8.4110

     22  H    Isotropic =    32.3197   Anisotropy =     9.7290

     23  H    Isotropic =    31.8972   Anisotropy =     7.0561

     24  H    Isotropic =    31.9386   Anisotropy =     6.5762

     25  H    Isotropic =    32.1394   Anisotropy =    10.5127

     26  H    Isotropic =    31.9868   Anisotropy =     6.6198

     27  H    Isotropic =    31.9882   Anisotropy =     7.8413

     28  H    Isotropic =    32.2758   Anisotropy =    10.2498

     29  H    Isotropic =    31.3541   Anisotropy =     9.9124

     30  H    Isotropic =    31.2175   Anisotropy =     7.6429

     31  H    Isotropic =    30.3975   Anisotropy =     6.2370

     32  H    Isotropic =    30.5772   Anisotropy =     5.7820

     33  H    Isotropic =    30.1841   Anisotropy =     5.6573

     34  H    Isotropic =    30.9872   Anisotropy =    11.3424

     35  H    Isotropic =    30.5061   Anisotropy =     7.9063

     36  H    Isotropic =    31.2156   Anisotropy =     8.8381

     37  C    Isotropic =   143.7015   Anisotropy =    31.9316

     38  C    Isotropic =    41.9962   Anisotropy =   185.6198

     39  C    Isotropic =    66.4277   Anisotropy =   139.6509

     40  H    Isotropic =    29.5340   Anisotropy =     5.8271

     41  H    Isotropic =    29.7064   Anisotropy =     4.8124

     42  H    Isotropic =    25.4964   Anisotropy =     7.2746

     43  H    Isotropic =    26.8763   Anisotropy =     7.0400

     44  H    Isotropic =    26.7755   Anisotropy =     7.0678

 The electronic state is 1-A.
 Alpha  occ. eigenvalues --  -66.27050 -19.26472 -19.21458 -19.20032 -10.37531
 Alpha  occ. eigenvalues --  -10.32266 -10.30784 -10.25413 -10.25270 -10.24735
 Alpha  occ. eigenvalues --  -10.24404 -10.23794 -10.22845 -10.22122 -10.21935
 Alpha  occ. eigenvalues --  -10.20889 -10.20622 -10.20520  -5.32882  -3.66731
 Alpha  occ. eigenvalues --   -3.66496  -3.66462  -1.13653  -1.04963  -1.04228
 Alpha  occ. eigenvalues --   -0.86023  -0.83393  -0.81053  -0.77876  -0.74018
 Alpha  occ. eigenvalues --   -0.72985  -0.71887  -0.70306  -0.69988  -0.66625
 Alpha  occ. eigenvalues --   -0.63925  -0.61851  -0.58943  -0.56583  -0.53629
 Alpha  occ. eigenvalues --   -0.52682  -0.50637  -0.49103  -0.48494  -0.47256
 Alpha  occ. eigenvalues --   -0.46878  -0.45482  -0.44950  -0.44460  -0.43906
 Alpha  occ. eigenvalues --   -0.42929  -0.42604  -0.42193  -0.41629  -0.41174
 Alpha  occ. eigenvalues --   -0.40938  -0.40345  -0.40176  -0.39664  -0.39033
 Alpha  occ. eigenvalues --   -0.38317  -0.37839  -0.36862  -0.36585  -0.35981
 Alpha  occ. eigenvalues --   -0.35620  -0.34656  -0.33495  -0.31750  -0.31423
 Alpha  occ. eigenvalues --   -0.30359  -0.29768  -0.28423  -0.26956
 Alpha virt. eigenvalues --   -0.00311   0.00739   0.03922   0.05546   0.05819
 Alpha virt. eigenvalues --    0.06510   0.07408   0.07845   0.08261   0.09403
 Alpha virt. eigenvalues --    0.09627   0.10121   0.10277   0.10786   0.11276

 Mulliken charges:
               1
     1  C   -0.036021
     2  C   -0.271840
     3  C    0.156842
     4  C   -0.638233
     5  C    0.482275
     6  H    0.248883
     7  H    0.246138
     8  H    0.300388
     9  H    0.263318
    10  O   -0.320459
    11  O   -0.386522
    12  C   -0.450321
    13  C   -0.660249
    14  C   -0.691969
    15  O   -0.627348
    16  Si   1.419095
    17  C   -1.060373
    18  C   -1.041218
    19  C   -1.086774
    20  H    0.237897
    21  H    0.236972
    22  H    0.235904
    23  H    0.250415
    24  H    0.247392
    25  H    0.248561
    26  H    0.243090
    27  H    0.241595
    28  H    0.237828
    29  H    0.237152
    30  H    0.244560
    31  H    0.258259
    32  H    0.229875
    33  H    0.247817
    34  H    0.227926
    35  H    0.237885
    36  H    0.221432
    37  C   -0.497615
    38  C   -0.177007
    39  C   -0.458704
    40  H    0.272416
    41  H    0.253901
    42  H    0.228435
    43  H    0.225797
    44  H    0.222608
 Sum of Mulliken charges =   0.00000

 Dipole moment (field-independent basis, Debye):
    X=              1.7412    Y=              3.3497    Z=             -2.2859  Tot=              4.4133
 Quadrupole moment (field-independent basis, Debye-Ang):
   XX=           -116.6348   YY=           -128.6822   ZZ=           -123.0323
   XY=            -11.3192   XZ=              7.7167   YZ=              8.7701

 Normal termination of Gaussian 09 at Thu Mar  8 13:18:41 2018.
