 Gaussian 09, Revision D.01,
 Gaussian 09:  EM64L-G09RevD.01 24-Apr-2013

 --------------------------------------------------------
 #mPW1PW91/6-311g(d) nmr=(giao) scrf=(solvent=chloroform)
 --------------------------------------------------------

 -------------
 P_ng_3ginp008
 -------------
 Symbolic Z-matrix:
 Charge =  0 Multiplicity = 1

                         Standard orientation:
 ---------------------------------------------------------------------
 Center     Atomic      Atomic             Coordinates (Angstroms)
 Number     Number       Type             X           Y           Z
 ---------------------------------------------------------------------
      1          6           0        2.538185    0.071497   -0.042313
      2          6           0        1.245146    0.368379    0.728712
      3          6           0        0.016259    0.018755   -0.175083
      4          6           0        0.131769   -1.466152   -0.542567
      5          6           0        1.479546   -1.877717   -1.069361
      6          1           0        2.604352    0.719805   -0.923361
      7          1           0        1.203996    1.435292    0.979188
      8          1           0       -0.082848   -2.107709    0.319187
      9          1           0       -0.608203   -1.721406   -1.310238
     10          8           0        2.568671   -1.285073   -0.535932
     11          8           0        1.592876   -2.801847   -1.869378
     12          6           0        3.845097    0.284004    0.738677
     13          6           0        4.037742    1.708908    1.231852
     14          6           0        1.202310   -0.367595    2.085911
     15          8           0       -1.137593    0.328483    0.635998
     16         14           0       -2.711888   -0.214510    0.485728
     17          6           0       -3.366036   -0.239438   -1.269925
     18          6           0       -2.901052   -1.942520    1.210340
     19          6           0       -3.840364    0.930848    1.483622
     20          1           0       -3.958931   -2.213225    1.278914
     21          1           0       -2.401472   -2.687431    0.585250
     22          1           0       -2.468938   -1.985656    2.214330
     23          1           0       -3.786752    1.950774    1.091992
     24          1           0       -4.878074    0.589725    1.427230
     25          1           0       -3.534399    0.944806    2.533665
     26          1           0       -4.408109   -0.573948   -1.281065
     27          1           0       -3.331832    0.758539   -1.714963
     28          1           0       -2.791298   -0.922139   -1.901254
     29          1           0        0.244592   -0.223045    2.595005
     30          1           0        1.371908   -1.443213    1.979375
     31          1           0        1.970451    0.019723    2.762891
     32          1           0        4.686758    0.022915    0.083437
     33          1           0        3.914668   -0.419344    1.576667
     34          1           0        5.023993    1.815559    1.694862
     35          1           0        3.974536    2.421912    0.403734
     36          1           0        3.289322    1.982552    1.980762
     37          6           0       -0.027308    0.879826   -1.487144
     38          6           0       -0.027125    2.374960   -1.286290
     39          6           0       -1.023612    3.186043   -1.664078
     40          1           0       -0.911592    0.604092   -2.071437
     41          1           0        0.820345    0.635077   -2.137610
     42          1           0        0.851275    2.821430   -0.826344
     43          1           0       -0.959568    4.257591   -1.499393
     44          1           0       -1.922736    2.809174   -2.140638
 ---------------------------------------------------------------------

 SCF Done:  E(RmPW1PW91) =  -1064.37543465     A.U. after   13 cycles

      1  C    Isotropic =   106.4368   Anisotropy =    58.3826

      2  C    Isotropic =   148.5834   Anisotropy =    22.3544

      3  C    Isotropic =   104.1621   Anisotropy =    52.1813

      4  C    Isotropic =   144.1054   Anisotropy =    34.9500

      5  C    Isotropic =     8.9297   Anisotropy =    95.1568

      6  H    Isotropic =    27.8173   Anisotropy =     3.0651

      7  H    Isotropic =    29.8042   Anisotropy =     4.6608

      8  H    Isotropic =    29.2039   Anisotropy =     4.4201

      9  H    Isotropic =    29.5661   Anisotropy =     3.8352

     10  O    Isotropic =   112.2768   Anisotropy =   186.5221

     11  O    Isotropic =  -134.5759   Anisotropy =   599.0417

     12  C    Isotropic =   159.7618   Anisotropy =    26.3004

     13  C    Isotropic =   178.2619   Anisotropy =    15.7451

     14  C    Isotropic =   179.7235   Anisotropy =    14.7024

     15  O    Isotropic =   244.2053   Anisotropy =    23.1914

     16  Si   Isotropic =   334.9444   Anisotropy =    53.8378

     17  C    Isotropic =   184.4262   Anisotropy =     6.3781

     18  C    Isotropic =   184.6844   Anisotropy =    11.4145

     19  C    Isotropic =   186.5221   Anisotropy =    12.9650

     20  H    Isotropic =    32.3211   Anisotropy =    10.4158

     21  H    Isotropic =    32.0818   Anisotropy =     6.2488

     22  H    Isotropic =    31.9767   Anisotropy =     7.5526

     23  H    Isotropic =    32.0463   Anisotropy =     8.3129

     24  H    Isotropic =    32.4059   Anisotropy =     9.8108

     25  H    Isotropic =    32.0294   Anisotropy =     8.6692

     26  H    Isotropic =    32.1224   Anisotropy =    10.4695

     27  H    Isotropic =    31.7823   Anisotropy =     7.7225

     28  H    Isotropic =    31.9175   Anisotropy =     6.1726

     29  H    Isotropic =    30.6894   Anisotropy =     8.0331

     30  H    Isotropic =    31.3957   Anisotropy =     7.4652

     31  H    Isotropic =    31.1162   Anisotropy =     9.7123

     32  H    Isotropic =    30.1136   Anisotropy =     9.2437

     33  H    Isotropic =    30.2771   Anisotropy =     5.6781

     34  H    Isotropic =    30.8905   Anisotropy =    11.9497

     35  H    Isotropic =    31.2758   Anisotropy =     8.7677

     36  H    Isotropic =    31.2078   Anisotropy =     6.0062

     37  C    Isotropic =   142.6629   Anisotropy =    34.6312

     38  C    Isotropic =    46.2806   Anisotropy =   176.9557

     39  C    Isotropic =    63.0023   Anisotropy =   143.1993

     40  H    Isotropic =    29.6330   Anisotropy =     4.3609

     41  H    Isotropic =    29.6898   Anisotropy =     4.9085

     42  H    Isotropic =    25.8856   Anisotropy =     7.2742

     43  H    Isotropic =    26.6508   Anisotropy =     6.6054

     44  H    Isotropic =    26.6579   Anisotropy =     6.5904

 The electronic state is 1-A.
 Alpha  occ. eigenvalues --  -66.26945 -19.26377 -19.21256 -19.20294 -10.37634
 Alpha  occ. eigenvalues --  -10.32345 -10.30744 -10.25533 -10.25362 -10.24718
 Alpha  occ. eigenvalues --  -10.24506 -10.23845 -10.23080 -10.22743 -10.22415
 Alpha  occ. eigenvalues --  -10.20856 -10.20482 -10.20455  -5.32772  -3.66618
 Alpha  occ. eigenvalues --   -3.66387  -3.66354  -1.13649  -1.05101  -1.04095
 Alpha  occ. eigenvalues --   -0.86072  -0.83384  -0.81113  -0.77654  -0.74050
 Alpha  occ. eigenvalues --   -0.73546  -0.71877  -0.70291  -0.69877  -0.66999
 Alpha  occ. eigenvalues --   -0.63568  -0.62286  -0.58625  -0.55191  -0.53601
 Alpha  occ. eigenvalues --   -0.53590  -0.51421  -0.50753  -0.48323  -0.47413
 Alpha  occ. eigenvalues --   -0.47001  -0.45768  -0.45025  -0.44318  -0.43429
 Alpha  occ. eigenvalues --   -0.42768  -0.42668  -0.42179  -0.41919  -0.40893
 Alpha  occ. eigenvalues --   -0.40760  -0.40157  -0.39845  -0.39630  -0.39414
 Alpha  occ. eigenvalues --   -0.38763  -0.37793  -0.37135  -0.37024  -0.36437
 Alpha  occ. eigenvalues --   -0.35479  -0.34399  -0.33451  -0.31881  -0.31354
 Alpha  occ. eigenvalues --   -0.30388  -0.29615  -0.28433  -0.27484
 Alpha virt. eigenvalues --   -0.00895   0.00956   0.03933   0.04799   0.06203
 Alpha virt. eigenvalues --    0.06500   0.07337   0.07652   0.08326   0.08718
 Alpha virt. eigenvalues --    0.09023   0.09907   0.10990   0.11127   0.11823

 Mulliken charges:
               1
     1  C   -0.035365
     2  C   -0.331913
     3  C    0.206435
     4  C   -0.651963
     5  C    0.474308
     6  H    0.254100
     7  H    0.264638
     8  H    0.308903
     9  H    0.267589
    10  O   -0.313644
    11  O   -0.379661
    12  C   -0.468696
    13  C   -0.672140
    14  C   -0.680430
    15  O   -0.626121
    16  Si   1.429445
    17  C   -1.092250
    18  C   -1.065610
    19  C   -1.038985
    20  H    0.239378
    21  H    0.240461
    22  H    0.242109
    23  H    0.239253
    24  H    0.234176
    25  H    0.237078
    26  H    0.247176
    27  H    0.250828
    28  H    0.246553
    29  H    0.262839
    30  H    0.230187
    31  H    0.243061
    32  H    0.241858
    33  H    0.242042
    34  H    0.238487
    35  H    0.230592
    36  H    0.232816
    37  C   -0.533226
    38  C   -0.147215
    39  C   -0.467071
    40  H    0.267451
    41  H    0.258169
    42  H    0.219416
    43  H    0.226295
    44  H    0.228648
 Sum of Mulliken charges =   0.00000

 Dipole moment (field-independent basis, Debye):
    X=             -1.1810    Y=              3.5649    Z=              2.0634  Tot=              4.2850
 Quadrupole moment (field-independent basis, Debye-Ang):
   XX=           -114.3016   YY=           -129.5229   ZZ=           -124.0661
   XY=             12.5456   XZ=              8.8834   YZ=             -9.4203

 Normal termination of Gaussian 09 at Thu Mar  8 13:23:55 2018.
