 Gaussian 09, Revision D.01,
 Gaussian 09:  EM64L-G09RevD.01 24-Apr-2013

 --------------------------------------------------------
 #mPW1PW91/6-311g(d) nmr=(giao) scrf=(solvent=chloroform)
 --------------------------------------------------------

 -------------
 P_ng_2ginp011
 -------------
 Symbolic Z-matrix:
 Charge =  0 Multiplicity = 1

                         Standard orientation:
 ---------------------------------------------------------------------
 Center     Atomic      Atomic             Coordinates (Angstroms)
 Number     Number       Type             X           Y           Z
 ---------------------------------------------------------------------
      1          6           0        2.460018    0.306787    0.023087
      2          6           0        1.147218    0.351673    0.810626
      3          6           0       -0.050328   -0.036137   -0.116314
      4          6           0        0.250071   -1.474535   -0.568137
      5          6           0        1.616311   -1.688456   -1.153134
      6          1           0        2.465692    1.102146   -0.731654
      7          1           0        1.178581   -0.429900    1.584667
      8          1           0        0.136188   -2.175505    0.268370
      9          1           0       -0.464816   -1.780878   -1.337942
     10          8           0        2.631912   -0.930075   -0.702191
     11          8           0        1.819787   -2.588291   -1.964096
     12          6           0        3.733114    0.507415    0.865694
     13          6           0        3.942479   -0.543948    1.948392
     14          6           0        0.982546    1.666359    1.586231
     15          8           0       -1.198636   -0.020820    0.761863
     16         14           0       -2.801866   -0.367352    0.435338
     17          6           0       -3.642534   -0.864205    2.059613
     18          6           0       -3.718938    1.144485   -0.210061
     19          6           0       -3.078109   -1.773984   -0.771190
     20          1           0       -3.567576    1.998819    0.456025
     21          1           0       -3.372083    1.416787   -1.210368
     22          1           0       -4.792628    0.941997   -0.268490
     23          1           0       -2.565072   -2.681552   -0.440298
     24          1           0       -4.145660   -2.002597   -0.849001
     25          1           0       -2.722045   -1.512824   -1.771631
     26          1           0       -4.702307   -1.076340    1.891619
     27          1           0       -3.168045   -1.758933    2.472744
     28          1           0       -3.559612   -0.055743    2.791643
     29          1           0       -0.028504    1.786606    1.985997
     30          1           0        1.662148    1.687556    2.445463
     31          1           0        1.221353    2.539603    0.974242
     32          1           0        3.738383    1.503904    1.320446
     33          1           0        4.601074    0.463865    0.195096
     34          1           0        4.908871   -0.386642    2.438527
     35          1           0        3.169598   -0.485126    2.719921
     36          1           0        3.939512   -1.555262    1.530573
     37          6           0       -0.231649    0.869005   -1.380658
     38          6           0       -0.410108    2.342643   -1.139463
     39          6           0        0.294941    3.295594   -1.763196
     40          1           0       -1.115904    0.534811   -1.936971
     41          1           0        0.610704    0.717510   -2.067294
     42          1           0       -1.169240    2.642603   -0.420073
     43          1           0        0.114820    4.345672   -1.551197
     44          1           0        1.057983    3.059664   -2.498704
 ---------------------------------------------------------------------

 SCF Done:  E(RmPW1PW91) =  -1064.37545029     A.U. after   13 cycles

      1  C    Isotropic =   106.2509   Anisotropy =    61.0599

      2  C    Isotropic =   142.3023   Anisotropy =    23.2798

      3  C    Isotropic =   105.8314   Anisotropy =    57.2292

      4  C    Isotropic =   137.6743   Anisotropy =    32.9040

      5  C    Isotropic =     9.3293   Anisotropy =    95.6591

      6  H    Isotropic =    27.7404   Anisotropy =     3.4412

      7  H    Isotropic =    29.7857   Anisotropy =     5.1219

      8  H    Isotropic =    29.6216   Anisotropy =     4.2160

      9  H    Isotropic =    29.2838   Anisotropy =     4.7440

     10  O    Isotropic =   101.6908   Anisotropy =   177.2467

     11  O    Isotropic =  -122.1260   Anisotropy =   576.6606

     12  C    Isotropic =   160.3376   Anisotropy =    22.4320

     13  C    Isotropic =   181.1044   Anisotropy =    11.8305

     14  C    Isotropic =   175.8848   Anisotropy =    13.5274

     15  O    Isotropic =   243.2238   Anisotropy =    31.5463

     16  Si   Isotropic =   334.3938   Anisotropy =    55.7077

     17  C    Isotropic =   185.6224   Anisotropy =    13.2942

     18  C    Isotropic =   184.6316   Anisotropy =     9.8807

     19  C    Isotropic =   184.4342   Anisotropy =     9.7772

     20  H    Isotropic =    31.8620   Anisotropy =     7.7866

     21  H    Isotropic =    32.0262   Anisotropy =     6.3216

     22  H    Isotropic =    32.2514   Anisotropy =    10.1523

     23  H    Isotropic =    31.8402   Anisotropy =     7.1400

     24  H    Isotropic =    32.1345   Anisotropy =    10.4135

     25  H    Isotropic =    31.9383   Anisotropy =     6.2277

     26  H    Isotropic =    32.3488   Anisotropy =     9.7074

     27  H    Isotropic =    32.0509   Anisotropy =     8.3693

     28  H    Isotropic =    31.9250   Anisotropy =     8.5174

     29  H    Isotropic =    30.4297   Anisotropy =     6.6114

     30  H    Isotropic =    31.4023   Anisotropy =     9.7434

     31  H    Isotropic =    31.2021   Anisotropy =     7.8705

     32  H    Isotropic =    30.2995   Anisotropy =     6.6097

     33  H    Isotropic =    30.0918   Anisotropy =     9.3985

     34  H    Isotropic =    31.2189   Anisotropy =    11.9921

     35  H    Isotropic =    31.2629   Anisotropy =     6.6569

     36  H    Isotropic =    31.0833   Anisotropy =     7.7383

     37  C    Isotropic =   142.4973   Anisotropy =    32.3034

     38  C    Isotropic =    42.1897   Anisotropy =   185.7023

     39  C    Isotropic =    65.8787   Anisotropy =   140.5058

     40  H    Isotropic =    29.5159   Anisotropy =     4.5320

     41  H    Isotropic =    29.5759   Anisotropy =     4.9864

     42  H    Isotropic =    25.5491   Anisotropy =     6.5215

     43  H    Isotropic =    26.8307   Anisotropy =     7.1362

     44  H    Isotropic =    26.7669   Anisotropy =     7.1635

 The electronic state is 1-A.
 Alpha  occ. eigenvalues --  -66.27073 -19.26402 -19.21518 -19.19825 -10.37342
 Alpha  occ. eigenvalues --  -10.32311 -10.30639 -10.25249 -10.25188 -10.25099
 Alpha  occ. eigenvalues --  -10.24577 -10.23801 -10.23053 -10.22238 -10.22094
 Alpha  occ. eigenvalues --  -10.20892 -10.20559 -10.20545  -5.32898  -3.66744
 Alpha  occ. eigenvalues --   -3.66513  -3.66481  -1.13577  -1.04797  -1.04252
 Alpha  occ. eigenvalues --   -0.86099  -0.83369  -0.81074  -0.77642  -0.73991
 Alpha  occ. eigenvalues --   -0.73242  -0.72174  -0.70353  -0.69926  -0.67024
 Alpha  occ. eigenvalues --   -0.63087  -0.62660  -0.58997  -0.56027  -0.53321
 Alpha  occ. eigenvalues --   -0.52452  -0.51151  -0.49333  -0.48695  -0.47353
 Alpha  occ. eigenvalues --   -0.46665  -0.45584  -0.44970  -0.44337  -0.43967
 Alpha  occ. eigenvalues --   -0.42981  -0.42491  -0.42421  -0.41702  -0.41071
 Alpha  occ. eigenvalues --   -0.40798  -0.40717  -0.40229  -0.39729  -0.39159
 Alpha  occ. eigenvalues --   -0.37987  -0.37578  -0.37297  -0.36544  -0.36402
 Alpha  occ. eigenvalues --   -0.35509  -0.34533  -0.33603  -0.31727  -0.31239
 Alpha  occ. eigenvalues --   -0.30401  -0.29684  -0.28311  -0.27147
 Alpha virt. eigenvalues --   -0.00256   0.00555   0.03875   0.05665   0.05826
 Alpha virt. eigenvalues --    0.06174   0.07027   0.08352   0.08682   0.09163
 Alpha virt. eigenvalues --    0.09346   0.10056   0.10503   0.10850   0.11155

 Mulliken charges:
               1
     1  C   -0.032731
     2  C   -0.298931
     3  C    0.177178
     4  C   -0.616115
     5  C    0.483447
     6  H    0.255375
     7  H    0.256477
     8  H    0.291863
     9  H    0.276858
    10  O   -0.317196
    11  O   -0.389789
    12  C   -0.456934
    13  C   -0.672970
    14  C   -0.698050
    15  O   -0.621380
    16  Si   1.397725
    17  C   -1.038557
    18  C   -1.064883
    19  C   -1.081946
    20  H    0.241778
    21  H    0.245707
    22  H    0.241670
    23  H    0.250241
    24  H    0.248833
    25  H    0.247785
    26  H    0.234161
    27  H    0.236118
    28  H    0.236930
    29  H    0.259766
    30  H    0.238618
    31  H    0.244689
    32  H    0.245245
    33  H    0.240163
    34  H    0.232842
    35  H    0.227773
    36  H    0.236219
    37  C   -0.534953
    38  C   -0.171425
    39  C   -0.456878
    40  H    0.261866
    41  H    0.256277
    42  H    0.235957
    43  H    0.227316
    44  H    0.223861
 Sum of Mulliken charges =   0.00000

 Dipole moment (field-independent basis, Debye):
    X=             -1.9649    Y=              3.5506    Z=              2.2529  Tot=              4.6415
 Quadrupole moment (field-independent basis, Debye-Ang):
   XX=           -117.8072   YY=           -126.2062   ZZ=           -125.2470
   XY=             11.8688   XZ=              8.6306   YZ=             -8.6563

 Normal termination of Gaussian 09 at Thu Mar  8 13:18:24 2018.
