 Gaussian 09, Revision D.01,
 Gaussian 09:  EM64L-G09RevD.01 24-Apr-2013

 --------------------------------------------------------
 #mPW1PW91/6-311g(d) nmr=(giao) scrf=(solvent=chloroform)
 --------------------------------------------------------

 --------------------
 P_ng_correct1ginp004
 --------------------
 Symbolic Z-matrix:
 Charge =  0 Multiplicity = 1

                         Standard orientation:
 ---------------------------------------------------------------------
 Center     Atomic      Atomic             Coordinates (Angstroms)
 Number     Number       Type             X           Y           Z
 ---------------------------------------------------------------------
      1          6           0        2.477047    0.243308    0.058784
      2          6           0        1.150187    0.325354    0.824058
      3          6           0       -0.051283    0.086743   -0.145926
      4          6           0        0.169711   -1.326137   -0.706682
      5          6           0        1.508733   -1.531023   -1.350564
      6          1           0        2.568815    1.110495   -0.606549
      7          1           0        1.109058   -0.504914    1.544442
      8          1           0        0.073076   -2.081000    0.083498
      9          1           0       -0.592307   -1.557772   -1.460147
     10          8           0        2.571546   -0.919218   -0.794567
     11          8           0        1.648380   -2.305652   -2.292564
     12          6           0        3.738516    0.249284    0.941968
     13          6           0        3.829757   -0.919282    1.915218
     14          6           0        1.062949    1.596791    1.679770
     15          8           0       -1.223120    0.162318    0.697150
     16         14           0       -2.763073   -0.431619    0.425878
     17          6           0       -3.419486   -0.106917   -1.298719
     18          6           0       -2.849510   -2.281532    0.759549
     19          6           0       -3.949233    0.407231    1.638873
     20          1           0       -2.298720   -2.845066    0.001731
     21          1           0       -2.424807   -2.513956    1.740475
     22          1           0       -3.888812   -2.623317    0.745613
     23          1           0       -3.955345    1.488847    1.475946
     24          1           0       -4.966273    0.028248    1.503291
     25          1           0       -3.638874    0.212380    2.669459
     26          1           0       -3.391397    0.961322   -1.532280
     27          1           0       -2.837795   -0.644475   -2.052545
     28          1           0       -4.458493   -0.441159   -1.379438
     29          1           0        1.740612    1.525261    2.537667
     30          1           0        1.353246    2.489190    1.119788
     31          1           0        0.059953    1.751992    2.087812
     32          1           0        3.813906    1.190845    1.496467
     33          1           0        4.618177    0.199396    0.287233
     34          1           0        3.746725   -1.879569    1.397271
     35          1           0        4.794902   -0.899272    2.431944
     36          1           0        3.048122   -0.867646    2.678413
     37          6           0       -0.146321    1.107083   -1.328948
     38          6           0       -0.412756    2.539688   -0.955481
     39          6           0        0.307223    3.578288   -1.399124
     40          1           0       -0.964579    0.808474   -1.992673
     41          1           0        0.754341    1.050612   -1.951773
     42          1           0       -1.257773    2.729510   -0.295780
     43          1           0        0.057992    4.592271   -1.099849
     44          1           0        1.151612    3.449119   -2.069110
 ---------------------------------------------------------------------

 SCF Done:  E(RmPW1PW91) =  -1064.37634364     A.U. after   13 cycles

      1  C    Isotropic =   105.3178   Anisotropy =    61.0400

      2  C    Isotropic =   141.8171   Anisotropy =    24.5796

      3  C    Isotropic =   105.8970   Anisotropy =    57.4475

      4  C    Isotropic =   138.1206   Anisotropy =    27.6273

      5  C    Isotropic =     9.3766   Anisotropy =    95.2164

      6  H    Isotropic =    27.7646   Anisotropy =     3.1288

      7  H    Isotropic =    29.8381   Anisotropy =     5.0761

      8  H    Isotropic =    29.4535   Anisotropy =     4.7918

      9  H    Isotropic =    29.4395   Anisotropy =     3.9471

     10  O    Isotropic =   103.4052   Anisotropy =   175.4617

     11  O    Isotropic =  -126.4046   Anisotropy =   582.5626

     12  C    Isotropic =   160.5061   Anisotropy =    22.1733

     13  C    Isotropic =   181.1298   Anisotropy =    11.6209

     14  C    Isotropic =   175.3808   Anisotropy =    13.9608

     15  O    Isotropic =   246.3924   Anisotropy =    21.4505

     16  Si   Isotropic =   334.2267   Anisotropy =    53.9574

     17  C    Isotropic =   185.1960   Anisotropy =     6.9793

     18  C    Isotropic =   184.3545   Anisotropy =    11.6477

     19  C    Isotropic =   186.2080   Anisotropy =    13.1753

     20  H    Isotropic =    31.9870   Anisotropy =     6.6003

     21  H    Isotropic =    31.9795   Anisotropy =     7.7766

     22  H    Isotropic =    32.2860   Anisotropy =    10.2477

     23  H    Isotropic =    31.9271   Anisotropy =     8.4249

     24  H    Isotropic =    32.3256   Anisotropy =     9.7295

     25  H    Isotropic =    31.9131   Anisotropy =     8.6285

     26  H    Isotropic =    31.8859   Anisotropy =     7.0835

     27  H    Isotropic =    31.9407   Anisotropy =     6.5990

     28  H    Isotropic =    32.1482   Anisotropy =    10.4826

     29  H    Isotropic =    31.4490   Anisotropy =     9.6912

     30  H    Isotropic =    31.1979   Anisotropy =     8.2324

     31  H    Isotropic =    30.4372   Anisotropy =     6.4817

     32  H    Isotropic =    30.2846   Anisotropy =     6.8021

     33  H    Isotropic =    30.0703   Anisotropy =     9.4879

     34  H    Isotropic =    31.1045   Anisotropy =     7.5909

     35  H    Isotropic =    31.2108   Anisotropy =    11.9842

     36  H    Isotropic =    31.2504   Anisotropy =     6.7115

     37  C    Isotropic =   143.6664   Anisotropy =    32.7271

     38  C    Isotropic =    42.0792   Anisotropy =   185.5912

     39  C    Isotropic =    66.4265   Anisotropy =   139.8365

     40  H    Isotropic =    29.5253   Anisotropy =     5.8303

     41  H    Isotropic =    29.6962   Anisotropy =     5.0468

     42  H    Isotropic =    25.4847   Anisotropy =     7.3602

     43  H    Isotropic =    26.8665   Anisotropy =     7.1344

     44  H    Isotropic =    26.7757   Anisotropy =     7.2392

 The electronic state is 1-A.
 Alpha  occ. eigenvalues --  -66.27052 -19.26463 -19.21475 -19.20060 -10.37517
 Alpha  occ. eigenvalues --  -10.32303 -10.30711 -10.25428 -10.25243 -10.24729
 Alpha  occ. eigenvalues --  -10.24399 -10.23828 -10.22839 -10.22165 -10.22123
 Alpha  occ. eigenvalues --  -10.20886 -10.20622 -10.20517  -5.32883  -3.66733
 Alpha  occ. eigenvalues --   -3.66497  -3.66463  -1.13642  -1.04976  -1.04238
 Alpha  occ. eigenvalues --   -0.86057  -0.83364  -0.81017  -0.77708  -0.74006
 Alpha  occ. eigenvalues --   -0.73162  -0.72113  -0.70303  -0.69986  -0.66964
 Alpha  occ. eigenvalues --   -0.63116  -0.62589  -0.58854  -0.56008  -0.53603
 Alpha  occ. eigenvalues --   -0.52495  -0.51118  -0.49360  -0.48620  -0.47374
 Alpha  occ. eigenvalues --   -0.46666  -0.45352  -0.44936  -0.44387  -0.43880
 Alpha  occ. eigenvalues --   -0.42842  -0.42612  -0.42555  -0.41788  -0.41208
 Alpha  occ. eigenvalues --   -0.40827  -0.40497  -0.40323  -0.39671  -0.38903
 Alpha  occ. eigenvalues --   -0.37833  -0.37639  -0.37382  -0.36621  -0.36420
 Alpha  occ. eigenvalues --   -0.35560  -0.34516  -0.33501  -0.31837  -0.31296
 Alpha  occ. eigenvalues --   -0.30363  -0.29752  -0.28429  -0.26958
 Alpha virt. eigenvalues --   -0.00368   0.00750   0.03874   0.05496   0.05694
 Alpha virt. eigenvalues --    0.06208   0.07389   0.08240   0.08547   0.09072
 Alpha virt. eigenvalues --    0.09644   0.09987   0.10420   0.10811   0.11495

 Mulliken charges:
               1
     1  C   -0.038221
     2  C   -0.295005
     3  C    0.163743
     4  C   -0.639810
     5  C    0.482140
     6  H    0.253939
     7  H    0.254995
     8  H    0.300865
     9  H    0.263339
    10  O   -0.318339
    11  O   -0.385378
    12  C   -0.455141
    13  C   -0.673810
    14  C   -0.689098
    15  O   -0.627260
    16  Si   1.419688
    17  C   -1.086805
    18  C   -1.060598
    19  C   -1.041004
    20  H    0.242992
    21  H    0.241535
    22  H    0.237899
    23  H    0.236938
    24  H    0.235907
    25  H    0.237848
    26  H    0.250219
    27  H    0.247447
    28  H    0.248522
    29  H    0.237360
    30  H    0.245681
    31  H    0.257392
    32  H    0.245444
    33  H    0.240593
    34  H    0.235671
    35  H    0.233169
    36  H    0.228003
    37  C   -0.498194
    38  C   -0.177154
    39  C   -0.458441
    40  H    0.272581
    41  H    0.253540
    42  H    0.228336
    43  H    0.225759
    44  H    0.222714
 Sum of Mulliken charges =   0.00000

 Dipole moment (field-independent basis, Debye):
    X=             -1.6731    Y=              2.8970    Z=              2.8474  Tot=              4.3931
 Quadrupole moment (field-independent basis, Debye-Ang):
   XX=           -115.9246   YY=           -124.7547   ZZ=           -127.6369
   XY=             10.1453   XZ=              9.2176   YZ=             -9.2050

 Normal termination of Gaussian 09 at Thu Mar  8 13:19:27 2018.
