 Gaussian 09, Revision D.01,
 Gaussian 09:  EM64L-G09RevD.01 24-Apr-2013

 --------------------------------------------------------
 #mPW1PW91/6-311g(d) nmr=(giao) scrf=(solvent=chloroform)
 --------------------------------------------------------

 -------------
 P_ng_4ginp002
 -------------
 Symbolic Z-matrix:
 Charge =  0 Multiplicity = 1

                         Standard orientation:
 ---------------------------------------------------------------------
 Center     Atomic      Atomic             Coordinates (Angstroms)
 Number     Number       Type             X           Y           Z
 ---------------------------------------------------------------------
      1          6           0       -2.429849   -0.164703    0.073844
      2          6           0       -1.138710    0.262313    0.785291
      3          6           0        0.076861    0.022536   -0.170777
      4          6           0        0.085067   -1.465744   -0.539111
      5          6           0       -1.241605   -2.004744   -1.000873
      6          1           0       -2.594712    0.459255   -0.811387
      7          1           0       -1.190079    1.331800    1.024683
      8          1           0        0.808483   -1.647969   -1.342962
      9          1           0        0.400094   -2.083609    0.309025
     10          8           0       -2.352573   -1.525789   -0.401954
     11          8           0       -1.306158   -2.931307   -1.803408
     12          6           0       -3.716349   -0.063313    0.908906
     13          6           0       -4.019891    1.344676    1.394768
     14          6           0       -0.964695   -0.452739    2.142450
     15          8           0        1.235451    0.441165    0.586269
     16         14           0        2.844952    0.044482    0.358099
     17          6           0        3.903951    1.237898    1.376685
     18          6           0        3.219856   -1.691115    0.980344
     19          6           0        3.422749    0.176543   -1.419648
     20          1           0        4.300510   -1.859728    1.011344
     21          1           0        2.821459   -1.830810    1.989495
     22          1           0        2.779923   -2.448278    0.325834
     23          1           0        4.495113   -0.031157   -1.487668
     24          1           0        2.902914   -0.540846   -2.060501
     25          1           0        3.250316    1.183205   -1.811473
     26          1           0        4.965193    0.997347    1.265847
     27          1           0        3.742694    2.266937    1.042743
     28          1           0        3.639625    1.170212    2.435909
     29          1           0       -1.739548   -0.139865    2.849559
     30          1           0       -1.026869   -1.540974    2.047825
     31          1           0       -0.006379   -0.206354    2.609644
     32          1           0       -3.684246   -0.757739    1.756530
     33          1           0       -4.557010   -0.410994    0.293848
     34          1           0       -4.991684    1.366465    1.898334
     35          1           0       -3.269634    1.696823    2.108229
     36          1           0       -4.057601    2.048495    0.557278
     37          6           0       -0.025612    0.886710   -1.475262
     38          6           0       -0.164737    2.368266   -1.236095
     39          6           0       -1.160438    3.121221   -1.720487
     40          1           0       -0.846672    0.532287   -2.109584
     41          1           0        0.876090    0.750907   -2.079924
     42          1           0        0.609552    2.841491   -0.633898
     43          1           0       -1.198166    4.187148   -1.514585
     44          1           0       -1.952042    2.703819   -2.334995
 ---------------------------------------------------------------------

 SCF Done:  E(RmPW1PW91) =  -1064.37728671     A.U. after   13 cycles

      1  C    Isotropic =   107.0781   Anisotropy =    60.2608

      2  C    Isotropic =   148.2168   Anisotropy =    21.3484

      3  C    Isotropic =   104.8539   Anisotropy =    56.6145

      4  C    Isotropic =   144.1062   Anisotropy =    34.9877

      5  C    Isotropic =     8.6934   Anisotropy =    95.5556

      6  H    Isotropic =    27.9814   Anisotropy =     2.9392

      7  H    Isotropic =    29.8901   Anisotropy =     4.3832

      8  H    Isotropic =    29.5442   Anisotropy =     3.7633

      9  H    Isotropic =    29.2440   Anisotropy =     4.6534

     10  O    Isotropic =   113.7023   Anisotropy =   186.0154

     11  O    Isotropic =  -136.1475   Anisotropy =   601.3695

     12  C    Isotropic =   159.7907   Anisotropy =    26.1630

     13  C    Isotropic =   178.3586   Anisotropy =    15.0939

     14  C    Isotropic =   179.7346   Anisotropy =    15.0571

     15  O    Isotropic =   245.1130   Anisotropy =    19.4605

     16  Si   Isotropic =   334.1910   Anisotropy =    54.5314

     17  C    Isotropic =   186.3125   Anisotropy =    13.2671

     18  C    Isotropic =   184.6615   Anisotropy =    11.1041

     19  C    Isotropic =   185.2159   Anisotropy =     6.7839

     20  H    Isotropic =    32.2762   Anisotropy =    10.4271

     21  H    Isotropic =    31.9489   Anisotropy =     7.3967

     22  H    Isotropic =    32.0264   Anisotropy =     6.3439

     23  H    Isotropic =    32.1520   Anisotropy =    10.4973

     24  H    Isotropic =    31.9428   Anisotropy =     6.4892

     25  H    Isotropic =    31.8791   Anisotropy =     7.2778

     26  H    Isotropic =    32.3392   Anisotropy =     9.7811

     27  H    Isotropic =    32.0121   Anisotropy =     8.5915

     28  H    Isotropic =    31.9596   Anisotropy =     8.5779

     29  H    Isotropic =    31.1564   Anisotropy =     9.6952

     30  H    Isotropic =    31.4331   Anisotropy =     7.5541

     31  H    Isotropic =    30.7110   Anisotropy =     8.1315

     32  H    Isotropic =    30.3174   Anisotropy =     5.8745

     33  H    Isotropic =    30.1727   Anisotropy =     9.2436

     34  H    Isotropic =    30.9850   Anisotropy =    11.9982

     35  H    Isotropic =    31.3144   Anisotropy =     5.8844

     36  H    Isotropic =    31.3788   Anisotropy =     8.4112

     37  C    Isotropic =   141.3982   Anisotropy =    35.4659

     38  C    Isotropic =    44.8397   Anisotropy =   180.3397

     39  C    Isotropic =    64.5993   Anisotropy =   141.9005

     40  H    Isotropic =    29.8277   Anisotropy =     5.3117

     41  H    Isotropic =    29.4584   Anisotropy =     6.4625

     42  H    Isotropic =    25.7094   Anisotropy =     7.0836

     43  H    Isotropic =    26.7009   Anisotropy =     6.8991

     44  H    Isotropic =    26.7701   Anisotropy =     7.2374

 The electronic state is 1-A.
 Alpha  occ. eigenvalues --  -66.27040 -19.26264 -19.21387 -19.20300 -10.37601
 Alpha  occ. eigenvalues --  -10.32292 -10.30537 -10.25521 -10.25146 -10.24647
 Alpha  occ. eigenvalues --  -10.24446 -10.23726 -10.23053 -10.22577 -10.22324
 Alpha  occ. eigenvalues --  -10.20882 -10.20619 -10.20547  -5.32870  -3.66717
 Alpha  occ. eigenvalues --   -3.66484  -3.66451  -1.13585  -1.05076  -1.04164
 Alpha  occ. eigenvalues --   -0.86011  -0.83291  -0.81075  -0.77556  -0.74072
 Alpha  occ. eigenvalues --   -0.73481  -0.71858  -0.70318  -0.69994  -0.66970
 Alpha  occ. eigenvalues --   -0.63316  -0.62142  -0.58721  -0.54994  -0.53511
 Alpha  occ. eigenvalues --   -0.53274  -0.51480  -0.51052  -0.47940  -0.47332
 Alpha  occ. eigenvalues --   -0.46959  -0.45448  -0.45034  -0.44491  -0.43796
 Alpha  occ. eigenvalues --   -0.42821  -0.42785  -0.42408  -0.41422  -0.41073
 Alpha  occ. eigenvalues --   -0.40593  -0.40358  -0.39717  -0.39377  -0.38968
 Alpha  occ. eigenvalues --   -0.38645  -0.37894  -0.37375  -0.37129  -0.36573
 Alpha  occ. eigenvalues --   -0.35345  -0.34500  -0.33302  -0.31938  -0.31254
 Alpha  occ. eigenvalues --   -0.30335  -0.29680  -0.28586  -0.27344
 Alpha virt. eigenvalues --   -0.00730   0.00704   0.03797   0.05314   0.06013
 Alpha virt. eigenvalues --    0.06483   0.07071   0.07928   0.08362   0.08987
 Alpha virt. eigenvalues --    0.09544   0.09898   0.10756   0.10839   0.11530

 Mulliken charges:
               1
     1  C   -0.038066
     2  C   -0.306112
     3  C    0.178040
     4  C   -0.648776
     5  C    0.472590
     6  H    0.255634
     7  H    0.265462
     8  H    0.267198
     9  H    0.309184
    10  O   -0.314542
    11  O   -0.379426
    12  C   -0.471559
    13  C   -0.669275
    14  C   -0.679805
    15  O   -0.630430
    16  Si   1.430997
    17  C   -1.041105
    18  C   -1.067371
    19  C   -1.086411
    20  H    0.239821
    21  H    0.242579
    22  H    0.241764
    23  H    0.247761
    24  H    0.246858
    25  H    0.246990
    26  H    0.235727
    27  H    0.237542
    28  H    0.237491
    29  H    0.242738
    30  H    0.228852
    31  H    0.261250
    32  H    0.240810
    33  H    0.240294
    34  H    0.236585
    35  H    0.232160
    36  H    0.231011
    37  C   -0.506122
    38  C   -0.179281
    39  C   -0.452575
    40  H    0.249635
    41  H    0.275533
    42  H    0.225165
    43  H    0.227603
    44  H    0.223585
 Sum of Mulliken charges =   0.00000

 Dipole moment (field-independent basis, Debye):
    X=              1.3300    Y=              3.6780    Z=              1.9694  Tot=              4.3789
 Quadrupole moment (field-independent basis, Debye-Ang):
   XX=           -112.9529   YY=           -131.8190   ZZ=           -123.1205
   XY=            -10.7899   XZ=             -5.6915   YZ=             -9.3439

 Normal termination of Gaussian 09 at Thu Mar  8 13:56:58 2018.
