 Gaussian 09, Revision D.01,
 Gaussian 09:  EM64L-G09RevD.01 24-Apr-2013

 --------------------------------------------------------
 #mPW1PW91/6-311g(d) nmr=(giao) scrf=(solvent=chloroform)
 --------------------------------------------------------

 --------------------
 P_ng_correct1ginp006
 --------------------
 Symbolic Z-matrix:
 Charge =  0 Multiplicity = 1

                         Standard orientation:
 ---------------------------------------------------------------------
 Center     Atomic      Atomic             Coordinates (Angstroms)
 Number     Number       Type             X           Y           Z
 ---------------------------------------------------------------------
      1          6           0       -2.355467    0.341707    0.071546
      2          6           0       -1.161156    0.079800   -0.860449
      3          6           0        0.111049    0.789112   -0.273973
      4          6           0        0.027554    0.920199    1.263115
      5          6           0       -0.841880   -0.120619    1.902769
      6          1           0       -2.496289    1.418146    0.231762
      7          1           0       -0.971142   -0.997504   -0.839367
      8          1           0        1.016753    0.897451    1.727850
      9          1           0       -0.429033    1.874365    1.559710
     10          8           0       -2.071642   -0.264230    1.353956
     11          8           0       -0.501911   -0.748389    2.898260
     12          6           0       -3.704019   -0.228202   -0.397969
     13          6           0       -3.724265   -1.742765   -0.570735
     14          6           0       -1.438702    0.409913   -2.331101
     15          8           0        1.294382    0.135123   -0.780809
     16         14           0        2.043292   -1.267223   -0.260632
     17          6           0        2.991592   -1.020108    1.342593
     18          6           0        0.890851   -2.732675   -0.067742
     19          6           0        3.326674   -1.760376   -1.571489
     20          1           0        1.455705   -3.624056    0.222357
     21          1           0        0.136395   -2.551767    0.701537
     22          1           0        0.379720   -2.952444   -1.009695
     23          1           0        3.851185   -2.670428   -1.266660
     24          1           0        2.834127   -1.943587   -2.530702
     25          1           0        4.059877   -0.959284   -1.701514
     26          1           0        3.583987   -0.101400    1.301585
     27          1           0        2.315782   -0.960105    2.199440
     28          1           0        3.673177   -1.858764    1.514617
     29          1           0       -1.816109    1.429899   -2.454589
     30          1           0       -0.533859    0.293944   -2.936818
     31          1           0       -2.187024   -0.268236   -2.753080
     32          1           0       -4.016423    0.252230   -1.331476
     33          1           0       -4.463567    0.023402    0.353447
     34          1           0       -3.033183   -2.070677   -1.352051
     35          1           0       -3.459703   -2.254780    0.359546
     36          1           0       -4.728528   -2.071165   -0.857867
     37          6           0        0.235086    2.253096   -0.843718
     38          6           0        1.384478    3.051610   -0.274085
     39          6           0        1.251734    4.221956    0.362709
     40          1           0       -0.706300    2.794484   -0.686514
     41          1           0        0.412597    2.217106   -1.925932
     42          1           0        2.380785    2.635007   -0.416252
     43          1           0        2.124187    4.747911    0.739795
     44          1           0        0.282989    4.685441    0.519631
 ---------------------------------------------------------------------

 SCF Done:  E(RmPW1PW91) =  -1064.37593306     A.U. after   13 cycles

      1  C    Isotropic =   108.0711   Anisotropy =    54.6847

      2  C    Isotropic =   141.8709   Anisotropy =    21.7197

      3  C    Isotropic =   104.0908   Anisotropy =    59.1711

      4  C    Isotropic =   143.0226   Anisotropy =    22.9743

      5  C    Isotropic =     5.0716   Anisotropy =   105.2802

      6  H    Isotropic =    27.9956   Anisotropy =     2.8763

      7  H    Isotropic =    29.9738   Anisotropy =     6.5708

      8  H    Isotropic =    29.3753   Anisotropy =     4.9676

      9  H    Isotropic =    29.5152   Anisotropy =     5.4283

     10  O    Isotropic =    87.1970   Anisotropy =   193.5879

     11  O    Isotropic =  -116.8483   Anisotropy =   586.4246

     12  C    Isotropic =   161.4389   Anisotropy =    20.6291

     13  C    Isotropic =   180.6990   Anisotropy =    11.9316

     14  C    Isotropic =   176.3864   Anisotropy =    12.7102

     15  O    Isotropic =   243.0872   Anisotropy =    23.2128

     16  Si   Isotropic =   334.2846   Anisotropy =    53.7039

     17  C    Isotropic =   185.6054   Anisotropy =    10.7540

     18  C    Isotropic =   185.5895   Anisotropy =     7.9575

     19  C    Isotropic =   185.6149   Anisotropy =    14.0562

     20  H    Isotropic =    32.2414   Anisotropy =    10.5468

     21  H    Isotropic =    31.9770   Anisotropy =     7.8000

     22  H    Isotropic =    32.1083   Anisotropy =     6.9584

     23  H    Isotropic =    32.3778   Anisotropy =     9.5605

     24  H    Isotropic =    32.0892   Anisotropy =     8.4099

     25  H    Isotropic =    31.9719   Anisotropy =     8.9370

     26  H    Isotropic =    32.0095   Anisotropy =     8.1385

     27  H    Isotropic =    31.6732   Anisotropy =     7.1142

     28  H    Isotropic =    32.3131   Anisotropy =    10.3169

     29  H    Isotropic =    31.3623   Anisotropy =     8.5816

     30  H    Isotropic =    30.7307   Anisotropy =     7.7281

     31  H    Isotropic =    31.1718   Anisotropy =     8.8181

     32  H    Isotropic =    30.4121   Anisotropy =     7.3655

     33  H    Isotropic =    30.1084   Anisotropy =     9.8378

     34  H    Isotropic =    31.3003   Anisotropy =     5.9620

     35  H    Isotropic =    30.8071   Anisotropy =     7.4581

     36  H    Isotropic =    31.2096   Anisotropy =    11.9709

     37  C    Isotropic =   137.2669   Anisotropy =    18.6855

     38  C    Isotropic =    42.8852   Anisotropy =   181.5525

     39  C    Isotropic =    65.0117   Anisotropy =   139.3684

     40  H    Isotropic =    30.1322   Anisotropy =     6.6444

     41  H    Isotropic =    29.4021   Anisotropy =     3.7786

     42  H    Isotropic =    25.5830   Anisotropy =     7.3998

     43  H    Isotropic =    26.7098   Anisotropy =     7.0784

     44  H    Isotropic =    26.7858   Anisotropy =     7.4559

 The electronic state is 1-A.
 Alpha  occ. eigenvalues --  -66.26859 -19.26527 -19.21497 -19.20281 -10.37264
 Alpha  occ. eigenvalues --  -10.32568 -10.30940 -10.25649 -10.25508 -10.24209
 Alpha  occ. eigenvalues --  -10.24180 -10.24106 -10.23098 -10.22846 -10.22183
 Alpha  occ. eigenvalues --  -10.20551 -10.20392 -10.20215  -5.32689  -3.66538
 Alpha  occ. eigenvalues --   -3.66307  -3.66264  -1.13676  -1.05247  -1.04265
 Alpha  occ. eigenvalues --   -0.86070  -0.83439  -0.80506  -0.77992  -0.73992
 Alpha  occ. eigenvalues --   -0.72739  -0.72274  -0.70134  -0.69688  -0.67254
 Alpha  occ. eigenvalues --   -0.63045  -0.62359  -0.58377  -0.56073  -0.54603
 Alpha  occ. eigenvalues --   -0.52619  -0.51688  -0.49055  -0.48691  -0.46698
 Alpha  occ. eigenvalues --   -0.46057  -0.45706  -0.45056  -0.44452  -0.43104
 Alpha  occ. eigenvalues --   -0.42951  -0.42612  -0.42221  -0.42086  -0.41298
 Alpha  occ. eigenvalues --   -0.41115  -0.40272  -0.39782  -0.39304  -0.38827
 Alpha  occ. eigenvalues --   -0.38457  -0.37993  -0.37799  -0.36576  -0.36252
 Alpha  occ. eigenvalues --   -0.35698  -0.35106  -0.33450  -0.32418  -0.31370
 Alpha  occ. eigenvalues --   -0.30041  -0.28817  -0.28683  -0.27192
 Alpha virt. eigenvalues --   -0.00192   0.01133   0.03915   0.05063   0.05619
 Alpha virt. eigenvalues --    0.06713   0.07381   0.08085   0.08566   0.08765
 Alpha virt. eigenvalues --    0.10060   0.10463   0.10621   0.10814   0.11324

 Mulliken charges:
               1
     1  C   -0.011007
     2  C   -0.352358
     3  C    0.218814
     4  C   -0.679595
     5  C    0.503711
     6  H    0.244375
     7  H    0.296928
     8  H    0.302132
     9  H    0.298663
    10  O   -0.317966
    11  O   -0.387859
    12  C   -0.464257
    13  C   -0.672228
    14  C   -0.703655
    15  O   -0.615482
    16  Si   1.399710
    17  C   -1.077338
    18  C   -1.092122
    19  C   -1.037884
    20  H    0.249353
    21  H    0.258657
    22  H    0.242298
    23  H    0.234248
    24  H    0.234943
    25  H    0.235498
    26  H    0.241191
    27  H    0.247337
    28  H    0.241080
    29  H    0.240296
    30  H    0.256391
    31  H    0.246559
    32  H    0.245111
    33  H    0.241893
    34  H    0.226757
    35  H    0.242100
    36  H    0.232944
    37  C   -0.507644
    38  C   -0.183143
    39  C   -0.451296
    40  H    0.240904
    41  H    0.262158
    42  H    0.223838
    43  H    0.226366
    44  H    0.219579
 Sum of Mulliken charges =   0.00000

 Dipole moment (field-independent basis, Debye):
    X=             -1.4673    Y=              2.1478    Z=             -3.8136  Tot=              4.6163
 Quadrupole moment (field-independent basis, Debye-Ang):
   XX=           -112.7496   YY=           -116.4961   ZZ=           -132.8902
   XY=             -4.8527   XZ=              7.0412   YZ=              7.5043

 Normal termination of Gaussian 09 at Thu Mar  8 13:15:43 2018.
