 Gaussian 09, Revision D.01,
 Gaussian 09:  EM64L-G09RevD.01 24-Apr-2013

 --------------------------------------------------------
 #mPW1PW91/6-311g(d) nmr=(giao) scrf=(solvent=chloroform)
 --------------------------------------------------------

 --------------------
 P_ng_correct1ginp010
 --------------------
 Symbolic Z-matrix:
 Charge =  0 Multiplicity = 1

                         Standard orientation:
 ---------------------------------------------------------------------
 Center     Atomic      Atomic             Coordinates (Angstroms)
 Number     Number       Type             X           Y           Z
 ---------------------------------------------------------------------
      1          6           0        2.305581   -0.421354   -0.361334
      2          6           0        0.884010   -0.958003   -0.576914
      3          6           0       -0.216936   -0.019209    0.012649
      4          6           0        0.051292    1.394826   -0.505566
      5          6           0        1.470027    1.862197   -0.397677
      6          1           0        2.605110   -0.520371    0.685391
      7          1           0        0.710463   -0.982007   -1.664572
      8          1           0       -0.231834    1.479727   -1.562694
      9          1           0       -0.567181    2.116401    0.039156
     10          8           0        2.429709    0.971429   -0.706251
     11          8           0        1.742554    3.036192   -0.165823
     12          6           0        3.353051   -1.177924   -1.202615
     13          6           0        4.770654   -0.662603   -0.976714
     14          6           0        0.737087   -2.412121   -0.098426
     15          8           0       -1.425055   -0.528497   -0.621659
     16         14           0       -3.022072   -0.112648   -0.346662
     17          6           0       -3.716505   -1.048918    1.131143
     18          6           0       -3.301452    1.720882   -0.081502
     19          6           0       -4.044615   -0.620336   -1.855308
     20          1           0       -2.821571    2.067428    0.837808
     21          1           0       -2.906260    2.300769   -0.920630
     22          1           0       -4.371604    1.934829    0.000653
     23          1           0       -5.100755   -0.382260   -1.699359
     24          1           0       -3.695665   -0.090039   -2.746070
     25          1           0       -3.952321   -1.695772   -2.032378
     26          1           0       -4.793712   -0.878542    1.218742
     27          1           0       -3.547013   -2.123517    1.016079
     28          1           0       -3.245259   -0.723718    2.062364
     29          1           0        1.322852   -3.093249   -0.723312
     30          1           0        1.078036   -2.532683    0.934246
     31          1           0       -0.301384   -2.753392   -0.155456
     32          1           0        3.117666   -1.070813   -2.268456
     33          1           0        3.340121   -2.246103   -0.965184
     34          1           0        5.483259   -1.257821   -1.556679
     35          1           0        4.874180    0.380400   -1.291257
     36          1           0        5.049070   -0.734699    0.079437
     37          6           0       -0.338478   -0.075819    1.572402
     38          6           0        0.829394    0.367299    2.408537
     39          6           0        1.466086   -0.422497    3.283295
     40          1           0       -0.649299   -1.086371    1.868815
     41          1           0       -1.171709    0.566002    1.884183
     42          1           0        1.137571    1.409663    2.337206
     43          1           0        2.285777   -0.036619    3.883254
     44          1           0        1.187623   -1.461698    3.430012
 ---------------------------------------------------------------------

 SCF Done:  E(RmPW1PW91) =  -1064.37462487     A.U. after   13 cycles

      1  C    Isotropic =   103.4229   Anisotropy =    47.8690

      2  C    Isotropic =   137.7486   Anisotropy =    30.1012

      3  C    Isotropic =   104.7488   Anisotropy =    55.4739

      4  C    Isotropic =   139.8206   Anisotropy =    29.8127

      5  C    Isotropic =     7.5259   Anisotropy =   100.9562

      6  H    Isotropic =    27.9167   Anisotropy =     4.6870

      7  H    Isotropic =    29.9980   Anisotropy =     3.9474

      8  H    Isotropic =    29.4252   Anisotropy =     4.2542

      9  H    Isotropic =    29.0764   Anisotropy =     3.8833

     10  O    Isotropic =   112.8279   Anisotropy =   209.8302

     11  O    Isotropic =  -134.8175   Anisotropy =   594.7210

     12  C    Isotropic =   156.4208   Anisotropy =    26.0660

     13  C    Isotropic =   174.9883   Anisotropy =    21.5070

     14  C    Isotropic =   176.2817   Anisotropy =    16.7491

     15  O    Isotropic =   222.2618   Anisotropy =    62.4109

     16  Si   Isotropic =   334.8685   Anisotropy =    53.4788

     17  C    Isotropic =   184.7958   Anisotropy =    11.2960

     18  C    Isotropic =   185.0539   Anisotropy =     8.5078

     19  C    Isotropic =   186.0674   Anisotropy =    13.4957

     20  H    Isotropic =    31.9468   Anisotropy =     6.2677

     21  H    Isotropic =    31.8778   Anisotropy =     7.1347

     22  H    Isotropic =    32.1647   Anisotropy =    10.4817

     23  H    Isotropic =    32.3775   Anisotropy =     9.6947

     24  H    Isotropic =    32.1069   Anisotropy =     8.4673

     25  H    Isotropic =    32.0060   Anisotropy =     8.6706

     26  H    Isotropic =    32.3524   Anisotropy =    10.2355

     27  H    Isotropic =    31.9413   Anisotropy =     7.9132

     28  H    Isotropic =    32.0466   Anisotropy =     6.1978

     29  H    Isotropic =    31.1425   Anisotropy =     9.7286

     30  H    Isotropic =    31.3831   Anisotropy =     7.8050

     31  H    Isotropic =    30.4481   Anisotropy =     7.2951

     32  H    Isotropic =    30.6641   Anisotropy =     5.7088

     33  H    Isotropic =    30.2438   Anisotropy =     5.6068

     34  H    Isotropic =    31.0392   Anisotropy =    11.3768

     35  H    Isotropic =    30.5731   Anisotropy =     7.9751

     36  H    Isotropic =    31.3285   Anisotropy =     8.6605

     37  C    Isotropic =   141.1449   Anisotropy =    27.3642

     38  C    Isotropic =    45.5046   Anisotropy =   177.1858

     39  C    Isotropic =    60.7611   Anisotropy =   147.8428

     40  H    Isotropic =    29.1658   Anisotropy =     2.9303

     41  H    Isotropic =    29.6250   Anisotropy =     6.3407

     42  H    Isotropic =    25.9408   Anisotropy =     6.1093

     43  H    Isotropic =    26.6841   Anisotropy =     6.6820

     44  H    Isotropic =    26.5622   Anisotropy =     7.1551

 The electronic state is 1-A.
 Alpha  occ. eigenvalues --  -66.26898 -19.25960 -19.21196 -19.20118 -10.37269
 Alpha  occ. eigenvalues --  -10.32313 -10.30124 -10.25089 -10.25050 -10.25021
 Alpha  occ. eigenvalues --  -10.25012 -10.23581 -10.23529 -10.22535 -10.21808
 Alpha  occ. eigenvalues --  -10.20810 -10.20548 -10.20424  -5.32731  -3.66577
 Alpha  occ. eigenvalues --   -3.66347  -3.66313  -1.13522  -1.04919  -1.03854
 Alpha  occ. eigenvalues --   -0.85887  -0.83371  -0.81027  -0.77805  -0.73881
 Alpha  occ. eigenvalues --   -0.73140  -0.71919  -0.70285  -0.69885  -0.66708
 Alpha  occ. eigenvalues --   -0.63565  -0.61976  -0.58504  -0.56974  -0.53497
 Alpha  occ. eigenvalues --   -0.52894  -0.50616  -0.49141  -0.48326  -0.47206
 Alpha  occ. eigenvalues --   -0.46566  -0.45470  -0.45234  -0.44496  -0.43913
 Alpha  occ. eigenvalues --   -0.42921  -0.42531  -0.41892  -0.41618  -0.40908
 Alpha  occ. eigenvalues --   -0.40832  -0.40527  -0.40252  -0.39626  -0.38985
 Alpha  occ. eigenvalues --   -0.37905  -0.37682  -0.37214  -0.36205  -0.35935
 Alpha  occ. eigenvalues --   -0.35421  -0.34685  -0.33714  -0.32179  -0.31061
 Alpha  occ. eigenvalues --   -0.30370  -0.29601  -0.28394  -0.27251
 Alpha virt. eigenvalues --   -0.01400   0.00764   0.03981   0.05647   0.06278
 Alpha virt. eigenvalues --    0.06898   0.07185   0.08039   0.08587   0.08980
 Alpha virt. eigenvalues --    0.09556   0.09941   0.10395   0.10729   0.11161

 Mulliken charges:
               1
     1  C   -0.031584
     2  C   -0.265646
     3  C    0.156144
     4  C   -0.579809
     5  C    0.459050
     6  H    0.263212
     7  H    0.247801
     8  H    0.292629
     9  H    0.272858
    10  O   -0.320597
    11  O   -0.381340
    12  C   -0.455512
    13  C   -0.659128
    14  C   -0.698423
    15  O   -0.618429
    16  Si   1.399214
    17  C   -1.056848
    18  C   -1.078727
    19  C   -1.037266
    20  H    0.248770
    21  H    0.248937
    22  H    0.247777
    23  H    0.235019
    24  H    0.237634
    25  H    0.237584
    26  H    0.237119
    27  H    0.240460
    28  H    0.242388
    29  H    0.241682
    30  H    0.233039
    31  H    0.259076
    32  H    0.228349
    33  H    0.243798
    34  H    0.226627
    35  H    0.236807
    36  H    0.221460
    37  C   -0.535516
    38  C   -0.212918
    39  C   -0.447688
    40  H    0.272942
    41  H    0.258288
    42  H    0.229866
    43  H    0.233444
    44  H    0.227454
 Sum of Mulliken charges =   0.00000

 Dipole moment (field-independent basis, Debye):
    X=             -2.0666    Y=             -4.0406    Z=              0.8793  Tot=              4.6228
 Quadrupole moment (field-independent basis, Debye-Ang):
   XX=           -119.2698   YY=           -130.9237   ZZ=           -116.5750
   XY=            -14.1128   XZ=              1.0792   YZ=             -0.4807

 Normal termination of Gaussian 09 at Thu Mar  8 13:14:00 2018.
