 Gaussian 09, Revision D.01,
 Gaussian 09:  EM64L-G09RevD.01 24-Apr-2013

 --------------------------------------------------------
 #mPW1PW91/6-311g(d) nmr=(giao) scrf=(solvent=chloroform)
 --------------------------------------------------------

 -------------
 P_ng_4ginp003
 -------------
 Symbolic Z-matrix:
 Charge =  0 Multiplicity = 1

                         Standard orientation:
 ---------------------------------------------------------------------
 Center     Atomic      Atomic             Coordinates (Angstroms)
 Number     Number       Type             X           Y           Z
 ---------------------------------------------------------------------
      1          6           0       -2.360985    0.150380    0.277873
      2          6           0       -1.006539    0.246813    0.989321
      3          6           0        0.135104    0.001709   -0.052260
      4          6           0       -0.096237   -1.383507   -0.670125
      5          6           0       -1.512069   -1.687667   -1.083347
      6          1           0       -2.436459    0.926763   -0.490762
      7          1           0       -0.894946    1.253972    1.411735
      8          1           0        0.514760   -1.490772   -1.572655
      9          1           0        0.220365   -2.175690    0.018951
     10          8           0       -2.518478   -1.113500   -0.393982
     11          8           0       -1.746864   -2.517773   -1.957813
     12          6           0       -3.563448    0.339618    1.216774
     13          6           0       -4.874450    0.473595    0.449786
     14          6           0       -0.918735   -0.710219    2.198362
     15          8           0        1.351945    0.038359    0.726935
     16         14           0        2.939380   -0.156005    0.237225
     17          6           0        3.188801   -1.341909   -1.191138
     18          6           0        3.707397    1.497828   -0.234165
     19          6           0        3.935875   -0.831465    1.698366
     20          1           0        4.779544    1.381435   -0.418592
     21          1           0        3.248521    1.898400   -1.142011
     22          1           0        3.574571    2.225307    0.571858
     23          1           0        4.988171   -0.946478    1.423016
     24          1           0        3.870692   -0.148423    2.550185
     25          1           0        3.546290   -1.806862    2.003740
     26          1           0        4.256566   -1.473458   -1.392562
     27          1           0        2.768448   -2.325630   -0.963344
     28          1           0        2.723743   -0.963873   -2.105788
     29          1           0       -1.632501   -0.418699    2.975896
     30          1           0       -1.134510   -1.746723    1.922350
     31          1           0        0.070087   -0.682202    2.666370
     32          1           0       -3.420755    1.235796    1.831200
     33          1           0       -3.663319   -0.521549    1.887318
     34          1           0       -5.704959    0.622331    1.147200
     35          1           0       -4.845105    1.331644   -0.229301
     36          1           0       -5.085685   -0.424711   -0.138610
     37          6           0        0.146105    1.086258   -1.184907
     38          6           0        0.159419    2.512192   -0.695941
     39          6           0       -0.721143    3.446963   -1.075540
     40          1           0       -0.706289    0.936238   -1.859010
     41          1           0        1.033172    0.955165   -1.815159
     42          1           0        0.944091    2.787082    0.006723
     43          1           0       -0.653960    4.460008   -0.689010
     44          1           0       -1.519242    3.234773   -1.780362
 ---------------------------------------------------------------------

 SCF Done:  E(RmPW1PW91) =  -1064.37734289     A.U. after   12 cycles

      1  C    Isotropic =   106.8876   Anisotropy =    41.9038

      2  C    Isotropic =   143.9851   Anisotropy =    27.9002

      3  C    Isotropic =   105.4387   Anisotropy =    56.6243

      4  C    Isotropic =   143.5435   Anisotropy =    37.2162

      5  C    Isotropic =     8.9684   Anisotropy =    95.1907

      6  H    Isotropic =    28.1369   Anisotropy =     3.8285

      7  H    Isotropic =    30.0738   Anisotropy =     5.3486

      8  H    Isotropic =    29.3906   Anisotropy =     4.7631

      9  H    Isotropic =    29.4440   Anisotropy =     4.1181

     10  O    Isotropic =   118.4845   Anisotropy =   203.3365

     11  O    Isotropic =  -130.0053   Anisotropy =   595.3365

     12  C    Isotropic =   157.0652   Anisotropy =    22.4055

     13  C    Isotropic =   174.2867   Anisotropy =    22.9194

     14  C    Isotropic =   178.2592   Anisotropy =    15.9024

     15  O    Isotropic =   244.8746   Anisotropy =    16.6443

     16  Si   Isotropic =   334.0035   Anisotropy =    55.4393

     17  C    Isotropic =   184.6499   Anisotropy =    10.1849

     18  C    Isotropic =   184.8633   Anisotropy =    10.3958

     19  C    Isotropic =   186.0316   Anisotropy =    12.7515

     20  H    Isotropic =    32.2828   Anisotropy =    10.1913

     21  H    Isotropic =    32.0237   Anisotropy =     6.3330

     22  H    Isotropic =    31.9231   Anisotropy =     8.0250

     23  H    Isotropic =    32.3590   Anisotropy =     9.8158

     24  H    Isotropic =    31.9559   Anisotropy =     8.6073

     25  H    Isotropic =    32.0636   Anisotropy =     8.0876

     26  H    Isotropic =    32.1327   Anisotropy =    10.5235

     27  H    Isotropic =    31.8725   Anisotropy =     6.8997

     28  H    Isotropic =    31.9366   Anisotropy =     6.1115

     29  H    Isotropic =    31.1152   Anisotropy =     9.7294

     30  H    Isotropic =    31.3913   Anisotropy =     7.4324

     31  H    Isotropic =    30.6417   Anisotropy =     8.2648

     32  H    Isotropic =    30.6992   Anisotropy =     6.6664

     33  H    Isotropic =    30.2124   Anisotropy =     4.6536

     34  H    Isotropic =    30.9783   Anisotropy =    11.4616

     35  H    Isotropic =    31.2426   Anisotropy =     8.5589

     36  H    Isotropic =    30.6191   Anisotropy =     8.1481

     37  C    Isotropic =   140.9166   Anisotropy =    35.5028

     38  C    Isotropic =    45.2213   Anisotropy =   179.5454

     39  C    Isotropic =    64.1747   Anisotropy =   142.1664

     40  H    Isotropic =    29.6591   Anisotropy =     5.0774

     41  H    Isotropic =    29.4830   Anisotropy =     4.5530

     42  H    Isotropic =    25.7648   Anisotropy =     6.6534

     43  H    Isotropic =    26.6907   Anisotropy =     6.9708

     44  H    Isotropic =    26.7425   Anisotropy =     7.1696

 The electronic state is 1-A.
 Alpha  occ. eigenvalues --  -66.27022 -19.26362 -19.21360 -19.20081 -10.37498
 Alpha  occ. eigenvalues --  -10.32225 -10.30426 -10.25240 -10.25091 -10.25071
 Alpha  occ. eigenvalues --  -10.24639 -10.23736 -10.23244 -10.22185 -10.21958
 Alpha  occ. eigenvalues --  -10.20909 -10.20533 -10.20518  -5.32850  -3.66696
 Alpha  occ. eigenvalues --   -3.66465  -3.66433  -1.13651  -1.04957  -1.04159
 Alpha  occ. eigenvalues --   -0.85972  -0.83229  -0.81161  -0.77579  -0.74022
 Alpha  occ. eigenvalues --   -0.73366  -0.71479  -0.70342  -0.69920  -0.66620
 Alpha  occ. eigenvalues --   -0.64057  -0.62252  -0.58916  -0.54961  -0.53191
 Alpha  occ. eigenvalues --   -0.53039  -0.51486  -0.50329  -0.48069  -0.47465
 Alpha  occ. eigenvalues --   -0.46695  -0.45417  -0.45103  -0.44802  -0.44017
 Alpha  occ. eigenvalues --   -0.43004  -0.42738  -0.41946  -0.41704  -0.40982
 Alpha  occ. eigenvalues --   -0.40606  -0.40292  -0.39724  -0.39558  -0.38740
 Alpha  occ. eigenvalues --   -0.38415  -0.37987  -0.36986  -0.36798  -0.36363
 Alpha  occ. eigenvalues --   -0.35565  -0.34518  -0.33391  -0.31729  -0.31139
 Alpha  occ. eigenvalues --   -0.30383  -0.29631  -0.28483  -0.27471
 Alpha virt. eigenvalues --   -0.00671   0.00542   0.03930   0.05530   0.06087
 Alpha virt. eigenvalues --    0.06331   0.07149   0.08286   0.08301   0.09282
 Alpha virt. eigenvalues --    0.09451   0.10116   0.10421   0.10920   0.11392

 Mulliken charges:
               1
     1  C   -0.053475
     2  C   -0.302707
     3  C    0.200755
     4  C   -0.627254
     5  C    0.478532
     6  H    0.258803
     7  H    0.255364
     8  H    0.279220
     9  H    0.298197
    10  O   -0.312360
    11  O   -0.383370
    12  C   -0.462691
    13  C   -0.662661
    14  C   -0.672018
    15  O   -0.623649
    16  Si   1.398732
    17  C   -1.083404
    18  C   -1.061328
    19  C   -1.038832
    20  H    0.238472
    21  H    0.243665
    22  H    0.241825
    23  H    0.234133
    24  H    0.237264
    25  H    0.235471
    26  H    0.249583
    27  H    0.251311
    28  H    0.248281
    29  H    0.242458
    30  H    0.227730
    31  H    0.259932
    32  H    0.240416
    33  H    0.243863
    34  H    0.228687
    35  H    0.221498
    36  H    0.236706
    37  C   -0.541689
    38  C   -0.173839
    39  C   -0.453557
    40  H    0.253826
    41  H    0.262244
    42  H    0.231906
    43  H    0.228944
    44  H    0.225017
 Sum of Mulliken charges =   0.00000

 Dipole moment (field-independent basis, Debye):
    X=              2.0081    Y=              3.5232    Z=              2.1118  Tot=              4.5722
 Quadrupole moment (field-independent basis, Debye-Ang):
   XX=           -118.3296   YY=           -125.9523   ZZ=           -124.2954
   XY=            -11.5170   XZ=             -9.0213   YZ=             -7.6371

 Normal termination of Gaussian 09 at Thu Mar  8 13:53:40 2018.
