 Gaussian 09, Revision D.01,
 Gaussian 09:  EM64L-G09RevD.01 24-Apr-2013

 --------------------------------------------------------
 #mPW1PW91/6-311g(d) nmr=(giao) scrf=(solvent=chloroform)
 --------------------------------------------------------

 -------------
 P_ng_4ginp005
 -------------
 Symbolic Z-matrix:
 Charge =  0 Multiplicity = 1

                         Standard orientation:
 ---------------------------------------------------------------------
 Center     Atomic      Atomic             Coordinates (Angstroms)
 Number     Number       Type             X           Y           Z
 ---------------------------------------------------------------------
      1          6           0        2.113451   -0.844495   -0.734412
      2          6           0        1.147680    0.273473   -1.162449
      3          6           0        0.036301    0.514663   -0.083777
      4          6           0        0.586892    0.213664    1.324671
      5          6           0        2.084048    0.248117    1.430136
      6          1           0        2.916889   -0.879940   -1.482022
      7          1           0        1.773378    1.174653   -1.210082
      8          1           0        0.185351    0.930127    2.051848
      9          1           0        0.276869   -0.773482    1.685988
     10          8           0        2.766988   -0.445089    0.490595
     11          8           0        2.656847    0.803796    2.361454
     12          6           0        1.539666   -2.263413   -0.612752
     13          6           0        2.620566   -3.287761   -0.285187
     14          6           0        0.608788    0.054569   -2.581677
     15          8           0       -0.997750   -0.450555   -0.397184
     16         14           0       -2.557069   -0.535903    0.209436
     17          6           0       -3.205365   -2.293309   -0.044117
     18          6           0       -2.670222   -0.158971    2.042865
     19          6           0       -3.707723    0.624088   -0.721421
     20          1           0       -3.701572   -0.271895    2.391019
     21          1           0       -2.043634   -0.844146    2.621028
     22          1           0       -2.354226    0.864774    2.259947
     23          1           0       -4.744716    0.463183   -0.411800
     24          1           0       -3.455736    1.670278   -0.528994
     25          1           0       -3.640040    0.446361   -1.798731
     26          1           0       -4.230139   -2.381255    0.328052
     27          1           0       -3.197497   -2.551911   -1.106914
     28          1           0       -2.577306   -3.010615    0.492135
     29          1           0        1.436774   -0.047700   -3.291722
     30          1           0       -0.007322   -0.845470   -2.663717
     31          1           0        0.004190    0.906527   -2.907414
     32          1           0        1.055932   -2.557083   -1.549979
     33          1           0        0.786211   -2.323818    0.176613
     34          1           0        2.186308   -4.291653   -0.240548
     35          1           0        3.402731   -3.291169   -1.050934
     36          1           0        3.085681   -3.080041    0.683473
     37          6           0       -0.485815    1.987838   -0.195929
     38          6           0        0.533354    3.074063    0.033165
     39          6           0        0.872639    3.986325   -0.886748
     40          1           0       -1.279440    2.155979    0.541342
     41          1           0       -0.972620    2.124571   -1.170157
     42          1           0        0.999114    3.130365    1.016312
     43          1           0        1.605828    4.755380   -0.660191
     44          1           0        0.433692    3.992296   -1.879776
 ---------------------------------------------------------------------

 SCF Done:  E(RmPW1PW91) =  -1064.37458462     A.U. after   13 cycles

      1  C    Isotropic =    99.9094   Anisotropy =    45.2071

      2  C    Isotropic =   143.5301   Anisotropy =     9.6246

      3  C    Isotropic =   104.8909   Anisotropy =    49.1756

      4  C    Isotropic =   139.1838   Anisotropy =    30.7350

      5  C    Isotropic =     7.7133   Anisotropy =   103.4144

      6  H    Isotropic =    27.8958   Anisotropy =     4.8306

      7  H    Isotropic =    29.8633   Anisotropy =     6.4301

      8  H    Isotropic =    29.1199   Anisotropy =     4.7398

      9  H    Isotropic =    29.2575   Anisotropy =     2.7643

     10  O    Isotropic =    91.2664   Anisotropy =   212.5371

     11  O    Isotropic =  -119.3970   Anisotropy =   582.5908

     12  C    Isotropic =   161.6918   Anisotropy =     9.5549

     13  C    Isotropic =   174.3759   Anisotropy =    23.6999

     14  C    Isotropic =   175.8115   Anisotropy =    18.2395

     15  O    Isotropic =   232.3307   Anisotropy =    54.3216

     16  Si   Isotropic =   334.1575   Anisotropy =    52.7821

     17  C    Isotropic =   186.2798   Anisotropy =    12.5216

     18  C    Isotropic =   185.4840   Anisotropy =     6.2958

     19  C    Isotropic =   184.5251   Anisotropy =    12.3000

     20  H    Isotropic =    32.1446   Anisotropy =    10.5997

     21  H    Isotropic =    31.9244   Anisotropy =     6.8882

     22  H    Isotropic =    31.9541   Anisotropy =     6.5760

     23  H    Isotropic =    32.3404   Anisotropy =    10.3349

     24  H    Isotropic =    32.0337   Anisotropy =     6.4006

     25  H    Isotropic =    31.9495   Anisotropy =     7.8296

     26  H    Isotropic =    32.3416   Anisotropy =     9.9530

     27  H    Isotropic =    31.9512   Anisotropy =     8.3683

     28  H    Isotropic =    32.0885   Anisotropy =     8.0518

     29  H    Isotropic =    31.4694   Anisotropy =    10.9622

     30  H    Isotropic =    30.8443   Anisotropy =     5.8504

     31  H    Isotropic =    31.0081   Anisotropy =     8.3881

     32  H    Isotropic =    30.3741   Anisotropy =     4.9445

     33  H    Isotropic =    30.0898   Anisotropy =     8.8094

     34  H    Isotropic =    30.9430   Anisotropy =    10.6472

     35  H    Isotropic =    31.2799   Anisotropy =    10.2106

     36  H    Isotropic =    30.7309   Anisotropy =     7.9693

     37  C    Isotropic =   137.9607   Anisotropy =    28.4293

     38  C    Isotropic =    45.2318   Anisotropy =   176.7759

     39  C    Isotropic =    62.0341   Anisotropy =   144.8688

     40  H    Isotropic =    29.6529   Anisotropy =     5.2080

     41  H    Isotropic =    29.4051   Anisotropy =     4.0509

     42  H    Isotropic =    25.9859   Anisotropy =     6.4348

     43  H    Isotropic =    26.7318   Anisotropy =     6.8469

     44  H    Isotropic =    26.6744   Anisotropy =     7.4841

 The electronic state is 1-A.
 Alpha  occ. eigenvalues --  -66.26959 -19.26058 -19.21076 -19.19897 -10.37121
 Alpha  occ. eigenvalues --  -10.32351 -10.30201 -10.25183 -10.24982 -10.24833
 Alpha  occ. eigenvalues --  -10.24736 -10.23295 -10.23290 -10.22504 -10.21857
 Alpha  occ. eigenvalues --  -10.20893 -10.20647 -10.20479  -5.32794  -3.66640
 Alpha  occ. eigenvalues --   -3.66409  -3.66374  -1.13260  -1.04833  -1.03925
 Alpha  occ. eigenvalues --   -0.85690  -0.83041  -0.80423  -0.78335  -0.73935
 Alpha  occ. eigenvalues --   -0.73072  -0.71877  -0.70356  -0.69981  -0.66410
 Alpha  occ. eigenvalues --   -0.63919  -0.62272  -0.58143  -0.54567  -0.54432
 Alpha  occ. eigenvalues --   -0.52278  -0.51089  -0.49404  -0.48929  -0.46629
 Alpha  occ. eigenvalues --   -0.46556  -0.45576  -0.44542  -0.44097  -0.43403
 Alpha  occ. eigenvalues --   -0.43355  -0.42560  -0.42148  -0.41829  -0.41355
 Alpha  occ. eigenvalues --   -0.40802  -0.40359  -0.40155  -0.39678  -0.39234
 Alpha  occ. eigenvalues --   -0.38179  -0.37871  -0.36936  -0.36848  -0.35637
 Alpha  occ. eigenvalues --   -0.35167  -0.34774  -0.33557  -0.31844  -0.30805
 Alpha  occ. eigenvalues --   -0.30227  -0.29735  -0.28314  -0.27097
 Alpha virt. eigenvalues --   -0.00772   0.01209   0.03860   0.05410   0.06198
 Alpha virt. eigenvalues --    0.06302   0.06808   0.08221   0.08431   0.09118
 Alpha virt. eigenvalues --    0.09460   0.09932   0.10434   0.10739   0.11692

 Mulliken charges:
               1
     1  C   -0.033211
     2  C   -0.337509
     3  C    0.243850
     4  C   -0.674613
     5  C    0.500116
     6  H    0.246947
     7  H    0.268713
     8  H    0.275898
     9  H    0.301232
    10  O   -0.317430
    11  O   -0.387674
    12  C   -0.447150
    13  C   -0.658939
    14  C   -0.659357
    15  O   -0.620848
    16  Si   1.417903
    17  C   -1.040407
    18  C   -1.076385
    19  C   -1.058617
    20  H    0.246870
    21  H    0.246968
    22  H    0.249344
    23  H    0.235458
    24  H    0.241993
    25  H    0.239791
    26  H    0.235701
    27  H    0.237318
    28  H    0.236720
    29  H    0.230568
    30  H    0.249733
    31  H    0.235545
    32  H    0.240677
    33  H    0.245611
    34  H    0.226638
    35  H    0.221166
    36  H    0.232687
    37  C   -0.557660
    38  C   -0.194250
    39  C   -0.445512
    40  H    0.255694
    41  H    0.264567
    42  H    0.225711
    43  H    0.231188
    44  H    0.224955
 Sum of Mulliken charges =   0.00000

 Dipole moment (field-independent basis, Debye):
    X=             -3.9895    Y=             -0.6728    Z=             -3.0934  Tot=              5.0929
 Quadrupole moment (field-independent basis, Debye-Ang):
   XX=           -130.1385   YY=           -116.3136   ZZ=           -123.0086
   XY=             -2.6347   XZ=            -14.1508   YZ=             -4.0616

 Normal termination of Gaussian 09 at Thu Mar  8 13:59:07 2018.
