 Gaussian 09, Revision D.01,
 Gaussian 09:  EM64L-G09RevD.01 24-Apr-2013

 --------------------------------------------------------
 #mPW1PW91/6-311g(d) nmr=(giao) scrf=(solvent=chloroform)
 --------------------------------------------------------

 -------------
 P_ng_4ginp008
 -------------
 Symbolic Z-matrix:
 Charge =  0 Multiplicity = 1

                         Standard orientation:
 ---------------------------------------------------------------------
 Center     Atomic      Atomic             Coordinates (Angstroms)
 Number     Number       Type             X           Y           Z
 ---------------------------------------------------------------------
      1          6           0       -2.538190    0.071511   -0.042315
      2          6           0       -1.245150    0.368375    0.728718
      3          6           0       -0.016261    0.018754   -0.175076
      4          6           0       -0.131780   -1.466148   -0.542576
      5          6           0       -1.479555   -1.877689   -1.069394
      6          1           0       -2.604351    0.719836   -0.923350
      7          1           0       -1.203995    1.435284    0.979208
      8          1           0        0.608199   -1.721403   -1.310240
      9          1           0        0.082821   -2.107719    0.319172
     10          8           0       -2.568679   -1.285051   -0.535957
     11          8           0       -1.592886   -2.801794   -1.869438
     12          6           0       -3.845103    0.284008    0.738676
     13          6           0       -4.037745    1.708904    1.231878
     14          6           0       -1.202327   -0.367619    2.085908
     15          8           0        1.137588    0.328467    0.636015
     16         14           0        2.711882   -0.214525    0.485743
     17          6           0        2.901044   -1.942518    1.210393
     18          6           0        3.366017   -0.239494   -1.269915
     19          6           0        3.840367    0.930861    1.483590
     20          1           0        4.408091   -0.573998   -1.281053
     21          1           0        2.791277   -0.922212   -1.901225
     22          1           0        3.331805    0.758474   -1.714977
     23          1           0        3.534404    0.944866    2.533634
     24          1           0        4.878074    0.589726    1.427210
     25          1           0        3.786766    1.950771    1.091917
     26          1           0        2.401442   -2.687438    0.585330
     27          1           0        3.958922   -2.213234    1.278951
     28          1           0        2.468951   -1.985627    2.214392
     29          1           0       -1.970469    0.019694    2.762889
     30          1           0       -1.371933   -1.443235    1.979354
     31          1           0       -0.244610   -0.223084    2.595007
     32          1           0       -3.914681   -0.419358    1.576650
     33          1           0       -4.686762    0.022935    0.083427
     34          1           0       -5.023997    1.815549    1.694888
     35          1           0       -3.289326    1.982531    1.980795
     36          1           0       -3.974534    2.421922    0.403774
     37          6           0        0.027319    0.879837   -1.487127
     38          6           0        0.027185    2.374969   -1.286259
     39          6           0        1.023664    3.186033   -1.664114
     40          1           0       -0.820347    0.635120   -2.137589
     41          1           0        0.911591    0.604080   -2.071432
     42          1           0       -0.851169    2.821456   -0.826242
     43          1           0        0.959655    4.257580   -1.499414
     44          1           0        1.922743    2.809149   -2.140748
 ---------------------------------------------------------------------

 SCF Done:  E(RmPW1PW91) =  -1064.37543470     A.U. after   13 cycles

      1  C    Isotropic =   106.4367   Anisotropy =    58.3829

      2  C    Isotropic =   148.5833   Anisotropy =    22.3545

      3  C    Isotropic =   104.1622   Anisotropy =    52.1812

      4  C    Isotropic =   144.1054   Anisotropy =    34.9502

      5  C    Isotropic =     8.9300   Anisotropy =    95.1565

      6  H    Isotropic =    27.8173   Anisotropy =     3.0651

      7  H    Isotropic =    29.8042   Anisotropy =     4.6608

      8  H    Isotropic =    29.5661   Anisotropy =     3.8353

      9  H    Isotropic =    29.2039   Anisotropy =     4.4199

     10  O    Isotropic =   112.2776   Anisotropy =   186.5221

     11  O    Isotropic =  -134.5757   Anisotropy =   599.0408

     12  C    Isotropic =   159.7616   Anisotropy =    26.3007

     13  C    Isotropic =   178.2620   Anisotropy =    15.7451

     14  C    Isotropic =   179.7234   Anisotropy =    14.7023

     15  O    Isotropic =   244.2056   Anisotropy =    23.1925

     16  Si   Isotropic =   334.9444   Anisotropy =    53.8371

     17  C    Isotropic =   184.6846   Anisotropy =    11.4146

     18  C    Isotropic =   184.4261   Anisotropy =     6.3779

     19  C    Isotropic =   186.5222   Anisotropy =    12.9649

     20  H    Isotropic =    32.1224   Anisotropy =    10.4694

     21  H    Isotropic =    31.9174   Anisotropy =     6.1727

     22  H    Isotropic =    31.7823   Anisotropy =     7.7225

     23  H    Isotropic =    32.0294   Anisotropy =     8.6692

     24  H    Isotropic =    32.4059   Anisotropy =     9.8108

     25  H    Isotropic =    32.0464   Anisotropy =     8.3128

     26  H    Isotropic =    32.0818   Anisotropy =     6.2488

     27  H    Isotropic =    32.3211   Anisotropy =    10.4158

     28  H    Isotropic =    31.9767   Anisotropy =     7.5527

     29  H    Isotropic =    31.1162   Anisotropy =     9.7123

     30  H    Isotropic =    31.3956   Anisotropy =     7.4651

     31  H    Isotropic =    30.6894   Anisotropy =     8.0331

     32  H    Isotropic =    30.2771   Anisotropy =     5.6781

     33  H    Isotropic =    30.1136   Anisotropy =     9.2436

     34  H    Isotropic =    30.8905   Anisotropy =    11.9497

     35  H    Isotropic =    31.2078   Anisotropy =     6.0062

     36  H    Isotropic =    31.2758   Anisotropy =     8.7677

     37  C    Isotropic =   142.6627   Anisotropy =    34.6316

     38  C    Isotropic =    46.2802   Anisotropy =   176.9561

     39  C    Isotropic =    63.0026   Anisotropy =   143.1992

     40  H    Isotropic =    29.6898   Anisotropy =     4.9084

     41  H    Isotropic =    29.6330   Anisotropy =     4.3607

     42  H    Isotropic =    25.8856   Anisotropy =     7.2744

     43  H    Isotropic =    26.6509   Anisotropy =     6.6055

     44  H    Isotropic =    26.6579   Anisotropy =     6.5904

 The electronic state is 1-A.
 Alpha  occ. eigenvalues --  -66.26945 -19.26377 -19.21256 -19.20294 -10.37634
 Alpha  occ. eigenvalues --  -10.32345 -10.30744 -10.25533 -10.25362 -10.24718
 Alpha  occ. eigenvalues --  -10.24506 -10.23845 -10.23080 -10.22743 -10.22415
 Alpha  occ. eigenvalues --  -10.20856 -10.20482 -10.20455  -5.32772  -3.66618
 Alpha  occ. eigenvalues --   -3.66387  -3.66354  -1.13649  -1.05101  -1.04095
 Alpha  occ. eigenvalues --   -0.86072  -0.83384  -0.81113  -0.77654  -0.74050
 Alpha  occ. eigenvalues --   -0.73546  -0.71877  -0.70291  -0.69877  -0.66999
 Alpha  occ. eigenvalues --   -0.63568  -0.62286  -0.58625  -0.55191  -0.53601
 Alpha  occ. eigenvalues --   -0.53590  -0.51421  -0.50753  -0.48323  -0.47412
 Alpha  occ. eigenvalues --   -0.47001  -0.45768  -0.45025  -0.44318  -0.43429
 Alpha  occ. eigenvalues --   -0.42768  -0.42668  -0.42179  -0.41919  -0.40893
 Alpha  occ. eigenvalues --   -0.40760  -0.40157  -0.39845  -0.39630  -0.39414
 Alpha  occ. eigenvalues --   -0.38763  -0.37793  -0.37135  -0.37024  -0.36437
 Alpha  occ. eigenvalues --   -0.35479  -0.34399  -0.33451  -0.31881  -0.31354
 Alpha  occ. eigenvalues --   -0.30388  -0.29615  -0.28433  -0.27484
 Alpha virt. eigenvalues --   -0.00895   0.00957   0.03933   0.04799   0.06203
 Alpha virt. eigenvalues --    0.06500   0.07337   0.07652   0.08326   0.08718
 Alpha virt. eigenvalues --    0.09023   0.09907   0.10990   0.11127   0.11823

 Mulliken charges:
               1
     1  C   -0.035366
     2  C   -0.331912
     3  C    0.206433
     4  C   -0.651961
     5  C    0.474308
     6  H    0.254100
     7  H    0.264638
     8  H    0.267588
     9  H    0.308901
    10  O   -0.313645
    11  O   -0.379659
    12  C   -0.468697
    13  C   -0.672140
    14  C   -0.680430
    15  O   -0.626122
    16  Si   1.429446
    17  C   -1.065609
    18  C   -1.092250
    19  C   -1.038984
    20  H    0.247176
    21  H    0.246554
    22  H    0.250828
    23  H    0.237078
    24  H    0.234176
    25  H    0.239253
    26  H    0.240460
    27  H    0.239377
    28  H    0.242109
    29  H    0.243061
    30  H    0.230187
    31  H    0.262839
    32  H    0.242041
    33  H    0.241858
    34  H    0.238487
    35  H    0.232816
    36  H    0.230593
    37  C   -0.533223
    38  C   -0.147215
    39  C   -0.467072
    40  H    0.258169
    41  H    0.267449
    42  H    0.219416
    43  H    0.226295
    44  H    0.228647
 Sum of Mulliken charges =   0.00000

 Dipole moment (field-independent basis, Debye):
    X=              1.1810    Y=              3.5648    Z=              2.0635  Tot=              4.2849
 Quadrupole moment (field-independent basis, Debye-Ang):
   XX=           -114.3019   YY=           -129.5223   ZZ=           -124.0664
   XY=            -12.5455   XZ=             -8.8837   YZ=             -9.4204

 Normal termination of Gaussian 09 at Thu Mar  8 13:56:41 2018.
