 Gaussian 09, Revision D.01,
 Gaussian 09:  EM64L-G09RevD.01 24-Apr-2013

 --------------------------------------------------------
 #mPW1PW91/6-311g(d) nmr=(giao) scrf=(solvent=chloroform)
 --------------------------------------------------------

 --------------------
 P_ng_correct1ginp008
 --------------------
 Symbolic Z-matrix:
 Charge =  0 Multiplicity = 1

                         Standard orientation:
 ---------------------------------------------------------------------
 Center     Atomic      Atomic             Coordinates (Angstroms)
 Number     Number       Type             X           Y           Z
 ---------------------------------------------------------------------
      1          6           0       -2.209856   -0.239073   -0.281187
      2          6           0       -0.815069   -0.319496   -0.922322
      3          6           0        0.116298    0.721937   -0.215896
      4          6           0       -0.226420    0.873507    1.284712
      5          6           0       -1.066119   -0.232287    1.858780
      6          1           0       -2.597587    0.786568   -0.279337
      7          1           0       -0.430994   -1.322660   -0.701926
      8          1           0        0.687556    0.959359    1.883364
      9          1           0       -0.818982    1.777883    1.472746
     10          8           0       -2.086615   -0.674947    1.090118
     11          8           0       -0.897374   -0.657919    2.996366
     12          6           0       -3.251365   -1.149420   -0.950317
     13          6           0       -4.605531   -1.097473   -0.251795
     14          6           0       -0.823414   -0.207768   -2.450699
     15          8           0        1.515231    0.440254   -0.437580
     16         14           0        2.392895   -0.940863   -0.101652
     17          6           0        2.409148   -2.085065   -1.599978
     18          6           0        4.186362   -0.447914    0.240150
     19          6           0        1.795116   -1.919851    1.373984
     20          1           0        4.604780    0.084348   -0.618956
     21          1           0        4.239616    0.207339    1.114386
     22          1           0        4.797383   -1.334697    0.431714
     23          1           0        1.791210   -1.305444    2.278402
     24          1           0        0.788531   -2.313060    1.210204
     25          1           0        2.456069   -2.773152    1.556144
     26          1           0        2.763296   -1.548734   -2.485153
     27          1           0        3.073951   -2.935743   -1.423244
     28          1           0        1.407839   -2.471473   -1.808267
     29          1           0       -1.269045   -1.100479   -2.902248
     30          1           0       -1.400240    0.657926   -2.791525
     31          1           0        0.192859   -0.127356   -2.849403
     32          1           0       -2.899798   -2.188190   -0.937822
     33          1           0       -3.396877   -0.857505   -1.995665
     34          1           0       -5.327924   -1.723099   -0.785775
     35          1           0       -4.541036   -1.465828    0.776667
     36          1           0       -4.994510   -0.074558   -0.228711
     37          6           0       -0.061738    2.142284   -0.881775
     38          6           0        0.727869    3.252526   -0.227221
     39          6           0        0.191776    4.380248    0.256380
     40          1           0       -1.123809    2.413548   -0.912198
     41          1           0        0.292233    2.107144   -1.919953
     42          1           0        1.806345    3.110618   -0.169185
     43          1           0        0.821280    5.141879    0.707587
     44          1           0       -0.874942    4.575405    0.213153
 ---------------------------------------------------------------------

 SCF Done:  E(RmPW1PW91) =  -1064.37587149     A.U. after   13 cycles

      1  C    Isotropic =   106.0896   Anisotropy =    43.2422

      2  C    Isotropic =   138.4202   Anisotropy =    23.7406

      3  C    Isotropic =   104.5649   Anisotropy =    59.5109

      4  C    Isotropic =   140.6665   Anisotropy =    25.9756

      5  C    Isotropic =     6.3846   Anisotropy =   103.1275

      6  H    Isotropic =    28.2873   Anisotropy =     3.0255

      7  H    Isotropic =    30.2109   Anisotropy =     5.4495

      8  H    Isotropic =    29.5102   Anisotropy =     4.5687

      9  H    Isotropic =    29.2558   Anisotropy =     4.8386

     10  O    Isotropic =    89.3201   Anisotropy =   189.9175

     11  O    Isotropic =  -116.4729   Anisotropy =   581.8498

     12  C    Isotropic =   158.1416   Anisotropy =    19.9405

     13  C    Isotropic =   175.5389   Anisotropy =    21.3049

     14  C    Isotropic =   175.8155   Anisotropy =     9.5593

     15  O    Isotropic =   243.0895   Anisotropy =    23.1912

     16  Si   Isotropic =   334.7715   Anisotropy =    51.6388

     17  C    Isotropic =   184.8283   Anisotropy =    10.5493

     18  C    Isotropic =   185.9271   Anisotropy =    13.4754

     19  C    Isotropic =   185.2556   Anisotropy =    11.6414

     20  H    Isotropic =    31.9751   Anisotropy =     8.8434

     21  H    Isotropic =    32.0706   Anisotropy =     8.4865

     22  H    Isotropic =    32.3686   Anisotropy =     9.6834

     23  H    Isotropic =    31.8549   Anisotropy =     7.3045

     24  H    Isotropic =    32.2023   Anisotropy =     7.0786

     25  H    Isotropic =    32.1997   Anisotropy =    10.4150

     26  H    Isotropic =    31.9786   Anisotropy =     7.9948

     27  H    Isotropic =    32.3615   Anisotropy =    10.2401

     28  H    Isotropic =    32.1474   Anisotropy =     6.9082

     29  H    Isotropic =    31.0719   Anisotropy =     8.6661

     30  H    Isotropic =    31.3897   Anisotropy =     8.3192

     31  H    Isotropic =    30.7941   Anisotropy =     7.1308

     32  H    Isotropic =    30.5073   Anisotropy =     5.3640

     33  H    Isotropic =    30.3158   Anisotropy =     5.6468

     34  H    Isotropic =    30.9676   Anisotropy =    11.3820

     35  H    Isotropic =    30.5986   Anisotropy =     8.0441

     36  H    Isotropic =    31.3151   Anisotropy =     9.2282

     37  C    Isotropic =   137.8295   Anisotropy =    18.8621

     38  C    Isotropic =    42.6777   Anisotropy =   181.6359

     39  C    Isotropic =    64.9732   Anisotropy =   139.4515

     40  H    Isotropic =    30.1441   Anisotropy =     6.4861

     41  H    Isotropic =    29.4380   Anisotropy =     3.6671

     42  H    Isotropic =    25.5834   Anisotropy =     7.5657

     43  H    Isotropic =    26.6922   Anisotropy =     7.0146

     44  H    Isotropic =    26.7814   Anisotropy =     7.3686

 The electronic state is 1-A.
 Alpha  occ. eigenvalues --  -66.26767 -19.26460 -19.21313 -19.19767 -10.37044
 Alpha  occ. eigenvalues --  -10.32447 -10.31032 -10.25995 -10.25264 -10.24179
 Alpha  occ. eigenvalues --  -10.24141 -10.24112 -10.23149 -10.22795 -10.22169
 Alpha  occ. eigenvalues --  -10.20435 -10.20401 -10.20375  -5.32618  -3.66466
 Alpha  occ. eigenvalues --   -3.66228  -3.66199  -1.13595  -1.04866  -1.04163
 Alpha  occ. eigenvalues --   -0.86113  -0.83346  -0.80508  -0.78164  -0.74004
 Alpha  occ. eigenvalues --   -0.72460  -0.72238  -0.70036  -0.69808  -0.66902
 Alpha  occ. eigenvalues --   -0.63518  -0.62100  -0.58813  -0.56902  -0.54012
 Alpha  occ. eigenvalues --   -0.51937  -0.51101  -0.49272  -0.48840  -0.47180
 Alpha  occ. eigenvalues --   -0.46181  -0.45149  -0.44867  -0.44128  -0.43686
 Alpha  occ. eigenvalues --   -0.42986  -0.42488  -0.42206  -0.41809  -0.41387
 Alpha  occ. eigenvalues --   -0.40548  -0.40472  -0.39515  -0.39470  -0.39135
 Alpha  occ. eigenvalues --   -0.38714  -0.38141  -0.36915  -0.36586  -0.36269
 Alpha  occ. eigenvalues --   -0.35901  -0.35345  -0.33419  -0.32207  -0.31261
 Alpha  occ. eigenvalues --   -0.30390  -0.28582  -0.28377  -0.27168
 Alpha virt. eigenvalues --    0.00225   0.01209   0.04031   0.04903   0.05759
 Alpha virt. eigenvalues --    0.06548   0.07574   0.07796   0.08587   0.08978
 Alpha virt. eigenvalues --    0.09361   0.10134   0.10497   0.10782   0.11598

 Mulliken charges:
               1
     1  C   -0.006507
     2  C   -0.364366
     3  C    0.234930
     4  C   -0.637921
     5  C    0.495275
     6  H    0.243434
     7  H    0.254083
     8  H    0.287806
     9  H    0.297619
    10  O   -0.316694
    11  O   -0.390814
    12  C   -0.462932
    13  C   -0.660291
    14  C   -0.702223
    15  O   -0.620001
    16  Si   1.387855
    17  C   -1.058696
    18  C   -1.038971
    19  C   -1.080409
    20  H    0.236802
    21  H    0.236479
    22  H    0.234532
    23  H    0.253308
    24  H    0.252827
    25  H    0.247300
    26  H    0.239137
    27  H    0.236466
    28  H    0.244185
    29  H    0.247937
    30  H    0.242648
    31  H    0.262185
    32  H    0.236533
    33  H    0.248569
    34  H    0.229821
    35  H    0.239662
    36  H    0.221617
    37  C   -0.512516
    38  C   -0.176176
    39  C   -0.454673
    40  H    0.240716
    41  H    0.261692
    42  H    0.223780
    43  H    0.226516
    44  H    0.219478
 Sum of Mulliken charges =   0.00000

 Dipole moment (field-independent basis, Debye):
    X=             -0.7645    Y=              1.1130    Z=             -4.6512  Tot=              4.8432
 Quadrupole moment (field-independent basis, Debye-Ang):
   XX=           -114.8336   YY=           -117.3653   ZZ=           -132.6920
   XY=             -5.0520   XZ=              9.4032   YZ=              7.3302

 Normal termination of Gaussian 09 at Thu Mar  8 13:19:32 2018.
