 Gaussian 09, Revision D.01,
 Gaussian 09:  EM64L-G09RevD.01 24-Apr-2013

 --------------------------------------------------------
 #mPW1PW91/6-311g(d) nmr=(giao) scrf=(solvent=chloroform)
 --------------------------------------------------------

 -------------
 P_ng_2ginp005
 -------------
 Symbolic Z-matrix:
 Charge =  0 Multiplicity = 1

                         Standard orientation:
 ---------------------------------------------------------------------
 Center     Atomic      Atomic             Coordinates (Angstroms)
 Number     Number       Type             X           Y           Z
 ---------------------------------------------------------------------
      1          6           0       -2.293456   -0.118885   -0.185683
      2          6           0       -1.001066   -0.107222   -1.019644
      3          6           0        0.085726    0.732600   -0.260870
      4          6           0       -0.139337    0.695348    1.267514
      5          6           0       -0.871564   -0.529507    1.729526
      6          1           0       -2.621765    0.898752    0.060057
      7          1           0       -0.649079   -1.143568   -1.061641
      8          1           0        0.800086    0.782697    1.819522
      9          1           0       -0.770227    1.530738    1.600518
     10          8           0       -2.007315   -0.816624    1.049124
     11          8           0       -0.515164   -1.189236    2.698254
     12          6           0       -3.460150   -0.856071   -0.860191
     13          6           0       -4.703478   -0.907762    0.020522
     14          6           0       -1.199075    0.299626   -2.483270
     15          8           0        1.397292    0.329655   -0.709196
     16         14           0        2.329393   -0.978004   -0.241864
     17          6           0        3.093159   -0.742211    1.458654
     18          6           0        1.430077   -2.621513   -0.283569
     19          6           0        3.776894   -1.124906   -1.463297
     20          1           0        2.113840   -3.435201   -0.022472
     21          1           0        0.600425   -2.643162    0.427015
     22          1           0        1.035603   -2.823931   -1.283665
     23          1           0        4.371848   -0.207190   -1.455076
     24          1           0        4.422221   -1.964271   -1.188988
     25          1           0        3.399516   -1.288719   -2.476711
     26          1           0        3.522011    0.259759    1.552352
     27          1           0        2.351862   -0.878636    2.250113
     28          1           0        3.891843   -1.472321    1.621571
     29          1           0       -0.237917    0.390367   -3.000005
     30          1           0       -1.774238   -0.459299   -3.024107
     31          1           0       -1.737386    1.248416   -2.572642
     32          1           0       -3.163765   -1.885666   -1.094364
     33          1           0       -3.729502   -0.362777   -1.799999
     34          1           0       -5.522340   -1.399808   -0.514029
     35          1           0       -4.520126   -1.470437    0.941046
     36          1           0       -5.032747    0.100360    0.291577
     37          6           0        0.004730    2.246032   -0.691939
     38          6           0        0.954886    3.159017    0.047377
     39          6           0        0.577299    4.224292    0.765325
     40          1           0       -1.023858    2.610955   -0.578701
     41          1           0        0.269210    2.345200   -1.752238
     42          1           0        2.015224    2.924198   -0.035978
     43          1           0        1.316401    4.844067    1.264933
     44          1           0       -0.465010    4.508155    0.869834
 ---------------------------------------------------------------------

 SCF Done:  E(RmPW1PW91) =  -1064.37670968     A.U. after   13 cycles

      1  C    Isotropic =   105.4224   Anisotropy =    43.7529

      2  C    Isotropic =   137.4276   Anisotropy =    28.8050

      3  C    Isotropic =   104.2032   Anisotropy =    59.0719

      4  C    Isotropic =   143.0765   Anisotropy =    23.2784

      5  C    Isotropic =     4.9460   Anisotropy =   105.1683

      6  H    Isotropic =    28.3254   Anisotropy =     3.2250

      7  H    Isotropic =    30.1103   Anisotropy =     7.5788

      8  H    Isotropic =    29.3754   Anisotropy =     5.0484

      9  H    Isotropic =    29.5111   Anisotropy =     5.1687

     10  O    Isotropic =    84.7840   Anisotropy =   187.7878

     11  O    Isotropic =  -116.1970   Anisotropy =   585.1269

     12  C    Isotropic =   158.1899   Anisotropy =    20.0156

     13  C    Isotropic =   175.5030   Anisotropy =    21.3362

     14  C    Isotropic =   175.9264   Anisotropy =    11.4584

     15  O    Isotropic =   243.3694   Anisotropy =    23.7404

     16  Si   Isotropic =   334.5760   Anisotropy =    53.9628

     17  C    Isotropic =   185.5320   Anisotropy =    10.7281

     18  C    Isotropic =   185.5886   Anisotropy =     7.4640

     19  C    Isotropic =   185.5115   Anisotropy =    14.1555

     20  H    Isotropic =    32.2622   Anisotropy =    10.5692

     21  H    Isotropic =    32.0093   Anisotropy =     7.8520

     22  H    Isotropic =    32.1294   Anisotropy =     7.0589

     23  H    Isotropic =    31.9740   Anisotropy =     8.8632

     24  H    Isotropic =    32.3772   Anisotropy =     9.5759

     25  H    Isotropic =    32.0837   Anisotropy =     8.4340

     26  H    Isotropic =    32.0138   Anisotropy =     8.0452

     27  H    Isotropic =    31.6794   Anisotropy =     7.1420

     28  H    Isotropic =    32.3110   Anisotropy =    10.3399

     29  H    Isotropic =    30.7544   Anisotropy =     7.5559

     30  H    Isotropic =    31.0924   Anisotropy =     9.0619

     31  H    Isotropic =    31.4057   Anisotropy =     8.2988

     32  H    Isotropic =    30.5221   Anisotropy =     5.3774

     33  H    Isotropic =    30.3392   Anisotropy =     5.8453

     34  H    Isotropic =    30.9648   Anisotropy =    11.4054

     35  H    Isotropic =    30.6059   Anisotropy =     7.9386

     36  H    Isotropic =    31.3098   Anisotropy =     9.2251

     37  C    Isotropic =   137.4366   Anisotropy =    18.7363

     38  C    Isotropic =    42.8609   Anisotropy =   181.5421

     39  C    Isotropic =    65.0852   Anisotropy =   139.3311

     40  H    Isotropic =    30.1539   Anisotropy =     6.4366

     41  H    Isotropic =    29.4179   Anisotropy =     3.7597

     42  H    Isotropic =    25.5951   Anisotropy =     7.3168

     43  H    Isotropic =    26.7055   Anisotropy =     7.0437

     44  H    Isotropic =    26.7873   Anisotropy =     7.3899

 The electronic state is 1-A.
 Alpha  occ. eigenvalues --  -66.26853 -19.26574 -19.21488 -19.20295 -10.37294
 Alpha  occ. eigenvalues --  -10.32509 -10.30955 -10.25600 -10.25515 -10.24205
 Alpha  occ. eigenvalues --  -10.24172 -10.24070 -10.23019 -10.22843 -10.22158
 Alpha  occ. eigenvalues --  -10.20545 -10.20390 -10.20222  -5.32685  -3.66533
 Alpha  occ. eigenvalues --   -3.66303  -3.66260  -1.13694  -1.05267  -1.04264
 Alpha  occ. eigenvalues --   -0.86036  -0.83438  -0.80564  -0.78218  -0.74009
 Alpha  occ. eigenvalues --   -0.72383  -0.72276  -0.70128  -0.69689  -0.66824
 Alpha  occ. eigenvalues --   -0.63449  -0.61972  -0.58699  -0.56863  -0.54587
 Alpha  occ. eigenvalues --   -0.51999  -0.51228  -0.49196  -0.48915  -0.47186
 Alpha  occ. eigenvalues --   -0.46073  -0.45249  -0.44865  -0.44051  -0.43565
 Alpha  occ. eigenvalues --   -0.43022  -0.42592  -0.42216  -0.42059  -0.41271
 Alpha  occ. eigenvalues --   -0.40801  -0.40389  -0.39605  -0.39334  -0.39234
 Alpha  occ. eigenvalues --   -0.38649  -0.38245  -0.37018  -0.36437  -0.36142
 Alpha  occ. eigenvalues --   -0.35778  -0.35453  -0.33513  -0.32352  -0.31483
 Alpha  occ. eigenvalues --   -0.30042  -0.28825  -0.28641  -0.27175
 Alpha virt. eigenvalues --   -0.00181   0.01135   0.04078   0.05042   0.05846
 Alpha virt. eigenvalues --    0.06638   0.07495   0.07759   0.08671   0.08893
 Alpha virt. eigenvalues --    0.10051   0.10374   0.10526   0.10922   0.11274

 Mulliken charges:
               1
     1  C   -0.015023
     2  C   -0.323652
     3  C    0.212024
     4  C   -0.680779
     5  C    0.504886
     6  H    0.240052
     7  H    0.282323
     8  H    0.302242
     9  H    0.299059
    10  O   -0.318821
    11  O   -0.387863
    12  C   -0.461160
    13  C   -0.659820
    14  C   -0.706631
    15  O   -0.614928
    16  Si   1.401444
    17  C   -1.077163
    18  C   -1.087448
    19  C   -1.038080
    20  H    0.248749
    21  H    0.255466
    22  H    0.242202
    23  H    0.235521
    24  H    0.234170
    25  H    0.234969
    26  H    0.241282
    27  H    0.247021
    28  H    0.241081
    29  H    0.256467
    30  H    0.246441
    31  H    0.239154
    32  H    0.236701
    33  H    0.248255
    34  H    0.229785
    35  H    0.239087
    36  H    0.221219
    37  C   -0.505995
    38  C   -0.183017
    39  C   -0.451701
    40  H    0.240820
    41  H    0.262041
    42  H    0.223802
    43  H    0.226325
    44  H    0.219490
 Sum of Mulliken charges =   0.00000

 Dipole moment (field-independent basis, Debye):
    X=             -1.4886    Y=              2.2618    Z=             -3.7654  Tot=              4.6379
 Quadrupole moment (field-independent basis, Debye-Ang):
   XX=           -112.9509   YY=           -119.8232   ZZ=           -129.7544
   XY=             -5.1836   XZ=              6.9308   YZ=              9.7686

 Normal termination of Gaussian 09 at Thu Mar  8 13:19:16 2018.
