 Gaussian 09, Revision D.01,
 Gaussian 09:  EM64L-G09RevD.01 24-Apr-2013

 --------------------------------------------------------
 #mPW1PW91/6-311g(d) nmr=(giao) scrf=(solvent=chloroform)
 --------------------------------------------------------

 --------------------
 P_ng_correct1ginp017
 --------------------
 Symbolic Z-matrix:
 Charge =  0 Multiplicity = 1

                         Standard orientation:
 ---------------------------------------------------------------------
 Center     Atomic      Atomic             Coordinates (Angstroms)
 Number     Number       Type             X           Y           Z
 ---------------------------------------------------------------------
      1          6           0        2.189079    0.483330    0.590455
      2          6           0        1.013040    1.467062    0.418486
      3          6           0       -0.160907    0.805033   -0.372822
      4          6           0        0.402927    0.254043   -1.687430
      5          6           0        1.665604   -0.551379   -1.552367
      6          1           0        3.061840    1.065304    0.914198
      7          1           0        0.663227    1.739207    1.423564
      8          1           0       -0.335552   -0.375541   -2.193823
      9          1           0        0.635976    1.070316   -2.382285
     10          8           0        2.579447   -0.128715   -0.654208
     11          8           0        1.923883   -1.462503   -2.334292
     12          6           0        1.983560   -0.613267    1.648164
     13          6           0        3.294595   -1.304285    2.010602
     14          6           0        1.559947    2.754454   -0.231318
     15          8           0       -0.691576   -0.213000    0.502751
     16         14           0       -1.753937   -1.467799    0.177709
     17          6           0       -3.176988   -1.027326   -0.957547
     18          6           0       -0.856093   -2.951773   -0.551397
     19          6           0       -2.511585   -2.035794    1.818599
     20          1           0        0.014270   -3.213971    0.056751
     21          1           0       -1.522098   -3.819201   -0.587047
     22          1           0       -0.517995   -2.745756   -1.570017
     23          1           0       -3.194615   -2.874093    1.654239
     24          1           0       -1.724925   -2.355702    2.507985
     25          1           0       -3.068783   -1.216295    2.281572
     26          1           0       -3.850951   -1.882380   -1.069964
     27          1           0       -3.759350   -0.195091   -0.551762
     28          1           0       -2.820171   -0.753218   -1.954221
     29          1           0        2.385504    3.161422    0.364066
     30          1           0        1.941691    2.579249   -1.241413
     31          1           0        0.804761    3.541924   -0.281944
     32          1           0        1.312333   -1.392089    1.279451
     33          1           0        1.547985   -0.185208    2.557632
     34          1           0        3.117149   -2.074282    2.768187
     35          1           0        3.743701   -1.787583    1.137299
     36          1           0        4.015737   -0.588847    2.418379
     37          6           0       -1.282821    1.848905   -0.699290
     38          6           0       -1.911901    2.499931    0.507483
     39          6           0       -2.030044    3.822799    0.677985
     40          1           0       -2.090183    1.364081   -1.254860
     41          1           0       -0.896794    2.615413   -1.382796
     42          1           0       -2.302380    1.836606    1.277385
     43          1           0       -2.500622    4.226099    1.569954
     44          1           0       -1.669148    4.532179   -0.060077
 ---------------------------------------------------------------------

 SCF Done:  E(RmPW1PW91) =  -1064.37421556     A.U. after   12 cycles

      1  C    Isotropic =    95.7143   Anisotropy =    24.7919

      2  C    Isotropic =   143.0431   Anisotropy =    16.3980

      3  C    Isotropic =   102.9749   Anisotropy =    57.8085

      4  C    Isotropic =   145.4689   Anisotropy =    34.0575

      5  C    Isotropic =     7.5285   Anisotropy =   107.5309

      6  H    Isotropic =    27.8584   Anisotropy =     3.8857

      7  H    Isotropic =    30.0621   Anisotropy =     2.8645

      8  H    Isotropic =    29.5460   Anisotropy =     3.3682

      9  H    Isotropic =    29.4632   Anisotropy =     5.7664

     10  O    Isotropic =   114.3695   Anisotropy =   214.3723

     11  O    Isotropic =  -146.3531   Anisotropy =   616.1487

     12  C    Isotropic =   150.7450   Anisotropy =    24.1973

     13  C    Isotropic =   172.8671   Anisotropy =    25.3554

     14  C    Isotropic =   169.2090   Anisotropy =    29.4560

     15  O    Isotropic =   244.4878   Anisotropy =    37.7699

     16  Si   Isotropic =   334.3833   Anisotropy =    52.9999

     17  C    Isotropic =   185.1678   Anisotropy =     8.0377

     18  C    Isotropic =   184.4262   Anisotropy =     9.1209

     19  C    Isotropic =   186.0745   Anisotropy =    12.5045

     20  H    Isotropic =    32.0520   Anisotropy =     7.1752

     21  H    Isotropic =    32.3448   Anisotropy =    10.3905

     22  H    Isotropic =    31.8995   Anisotropy =     6.9783

     23  H    Isotropic =    32.3487   Anisotropy =     9.8820

     24  H    Isotropic =    31.9679   Anisotropy =     8.0933

     25  H    Isotropic =    32.0232   Anisotropy =     8.6554

     26  H    Isotropic =    32.1563   Anisotropy =    10.4326

     27  H    Isotropic =    31.9216   Anisotropy =     7.4946

     28  H    Isotropic =    31.9173   Anisotropy =     6.2344

     29  H    Isotropic =    31.0903   Anisotropy =    10.6402

     30  H    Isotropic =    31.0596   Anisotropy =     7.5170

     31  H    Isotropic =    30.8777   Anisotropy =     8.6501

     32  H    Isotropic =    29.8495   Anisotropy =     9.7778

     33  H    Isotropic =    30.4811   Anisotropy =     5.1442

     34  H    Isotropic =    31.0034   Anisotropy =    10.4619

     35  H    Isotropic =    30.5775   Anisotropy =     7.3964

     36  H    Isotropic =    31.3041   Anisotropy =     9.8545

     37  C    Isotropic =   140.6937   Anisotropy =    35.4775

     38  C    Isotropic =    45.0240   Anisotropy =   179.4045

     39  C    Isotropic =    64.9634   Anisotropy =   141.6233

     40  H    Isotropic =    29.6279   Anisotropy =     5.6823

     41  H    Isotropic =    29.8771   Anisotropy =     5.4888

     42  H    Isotropic =    25.6845   Anisotropy =     7.7448

     43  H    Isotropic =    26.6704   Anisotropy =     7.2038

     44  H    Isotropic =    26.7540   Anisotropy =     7.4967

 The electronic state is 1-A.
 Alpha  occ. eigenvalues --  -66.27055 -19.26082 -19.21427 -19.20135 -10.37327
 Alpha  occ. eigenvalues --  -10.32339 -10.30205 -10.25638 -10.25250 -10.24393
 Alpha  occ. eigenvalues --  -10.24364 -10.22985 -10.22880 -10.22802 -10.21567
 Alpha  occ. eigenvalues --  -10.20942 -10.20557 -10.20242  -5.32880  -3.66729
 Alpha  occ. eigenvalues --   -3.66494  -3.66458  -1.13430  -1.04901  -1.04263
 Alpha  occ. eigenvalues --   -0.85778  -0.82869  -0.80899  -0.77987  -0.74018
 Alpha  occ. eigenvalues --   -0.72881  -0.71590  -0.70249  -0.69815  -0.67098
 Alpha  occ. eigenvalues --   -0.64184  -0.61451  -0.58042  -0.54980  -0.54151
 Alpha  occ. eigenvalues --   -0.52484  -0.50923  -0.49812  -0.49056  -0.47530
 Alpha  occ. eigenvalues --   -0.46479  -0.45183  -0.44251  -0.44076  -0.43334
 Alpha  occ. eigenvalues --   -0.42960  -0.42618  -0.42373  -0.41761  -0.41305
 Alpha  occ. eigenvalues --   -0.40740  -0.40385  -0.40040  -0.39587  -0.39498
 Alpha  occ. eigenvalues --   -0.38635  -0.37589  -0.37054  -0.36633  -0.35966
 Alpha  occ. eigenvalues --   -0.35402  -0.34282  -0.33109  -0.31941  -0.30687
 Alpha  occ. eigenvalues --   -0.29932  -0.29600  -0.28715  -0.26986
 Alpha virt. eigenvalues --   -0.00674   0.00903   0.03782   0.05725   0.06315
 Alpha virt. eigenvalues --    0.06462   0.06892   0.07854   0.08779   0.09189
 Alpha virt. eigenvalues --    0.09290   0.09668   0.10793   0.11357   0.11537

 Mulliken charges:
               1
     1  C   -0.066240
     2  C   -0.281357
     3  C    0.156999
     4  C   -0.607173
     5  C    0.491452
     6  H    0.246772
     7  H    0.258472
     8  H    0.272909
     9  H    0.288305
    10  O   -0.319110
    11  O   -0.384987
    12  C   -0.427327
    13  C   -0.666877
    14  C   -0.682858
    15  O   -0.624398
    16  Si   1.433155
    17  C   -1.087606
    18  C   -1.073429
    19  C   -1.046898
    20  H    0.248851
    21  H    0.236011
    22  H    0.246732
    23  H    0.234876
    24  H    0.236959
    25  H    0.236173
    26  H    0.248643
    27  H    0.248427
    28  H    0.246880
    29  H    0.240667
    30  H    0.235803
    31  H    0.249273
    32  H    0.257515
    33  H    0.228912
    34  H    0.225079
    35  H    0.234083
    36  H    0.218312
    37  C   -0.516658
    38  C   -0.179142
    39  C   -0.455262
    40  H    0.272664
    41  H    0.249439
    42  H    0.226862
    43  H    0.226876
    44  H    0.222219
 Sum of Mulliken charges =   0.00000

 Dipole moment (field-independent basis, Debye):
    X=             -2.7938    Y=              3.4532    Z=              1.9680  Tot=              4.8583
 Quadrupole moment (field-independent basis, Debye-Ang):
   XX=           -124.9548   YY=           -117.6566   ZZ=           -122.8195
   XY=              9.4789   XZ=              9.1278   YZ=             -6.8911

 Normal termination of Gaussian 09 at Thu Mar  8 13:16:29 2018.
