 Gaussian 09, Revision D.01,
 Gaussian 09:  EM64L-G09RevD.01 24-Apr-2013

 ---------------------------------------------------------------
 # b3lyp/6-31g(d,p) Opt=(maxcycles=50) scrf=(solvent=chloroform)
 ---------------------------------------------------------------

 ------------
 AT3_1ginp020
 ------------
 Symbolic Z-matrix:
 Charge =  0 Multiplicity = 1

 SCF Done:  E(RB3LYP) =  -836.488368296     A.U. after   12 cycles
 SCF Done:  E(RB3LYP) =  -836.491928571     A.U. after   10 cycles
 SCF Done:  E(RB3LYP) =  -836.492322220     A.U. after    9 cycles
 SCF Done:  E(RB3LYP) =  -836.492408298     A.U. after    9 cycles
 SCF Done:  E(RB3LYP) =  -836.492432054     A.U. after    9 cycles
 SCF Done:  E(RB3LYP) =  -836.492437763     A.U. after    9 cycles
 SCF Done:  E(RB3LYP) =  -836.492445274     A.U. after    8 cycles
 SCF Done:  E(RB3LYP) =  -836.492446462     A.U. after    8 cycles
 SCF Done:  E(RB3LYP) =  -836.492442984     A.U. after    8 cycles
 SCF Done:  E(RB3LYP) =  -836.492440137     A.U. after    7 cycles
 SCF Done:  E(RB3LYP) =  -836.492438645     A.U. after    7 cycles
 SCF Done:  E(RB3LYP) =  -836.492437649     A.U. after    6 cycles
 SCF Done:  E(RB3LYP) =  -836.492437286     A.U. after    6 cycles
 SCF Done:  E(RB3LYP) =  -836.492436912     A.U. after    6 cycles
 Optimization completed.
    -- Stationary point found.

                         Standard orientation:
 ---------------------------------------------------------------------
 Center     Atomic      Atomic             Coordinates (Angstroms)
 Number     Number       Type             X           Y           Z
 ---------------------------------------------------------------------
      1          6           0        2.084061   -2.131983    2.109801
      2          6           0        2.539365   -0.763391    1.594988
      3          6           0        1.898793   -0.380018    0.246767
      4          6           0        2.583517    0.833399   -0.455378
      5          6           0        4.015593    0.528030   -0.904113
      6          8           0        3.999547   -0.614943   -1.758336
      7          7           0        0.451026   -0.211938    0.461246
      8          6           0       -0.368858   -0.138971   -0.752038
      9          6           0       -4.564000    0.282920    0.278841
     10          6           0       -4.104012   -0.927419   -0.239913
     11          6           0       -2.755983   -1.044067   -0.562136
     12          6           0       -1.833862   -0.008982   -0.401916
     13          6           0       -2.354101    1.174740    0.124491
     14          6           0       -3.686834    1.352828    0.468398
     15          1           0       -5.611487    0.393645    0.538712
     16          1           0       -4.764777   -1.772421   -0.395248
     17          1           0       -4.016247    2.303028    0.872451
     18          9           0       -2.317737   -2.219939   -1.067982
     19          9           0       -1.489577    2.206337    0.314566
     20          1           0        2.509042   -2.346564    3.095981
     21          1           0        0.994455   -2.168674    2.185678
     22          1           0        2.399585   -2.931446    1.429452
     23          1           0        2.297258    0.006541    2.340066
     24          1           0        3.630838   -0.758561    1.496721
     25          1           0        2.020544    1.018924   -1.379979
     26          1           0        4.663988    0.358557   -0.030774
     27          1           0        4.416289    1.406132   -1.434724
     28          1           0        4.913137   -0.819321   -1.995861
     29          1           0       -0.104330    0.697176   -1.419872
     30          1           0       -0.218663   -1.059817   -1.321538
     31          1           0        2.013534   -1.233443   -0.432864
     32          6           0        2.554189    2.125264    0.375131
     33          1           0        1.531071    2.397533    0.653729
     34          1           0        3.140307    2.033913    1.295927
     35          1           0        2.965062    2.963982   -0.196706
     36          1           0        0.285439    0.622230    1.020024
 ---------------------------------------------------------------------

 The electronic state is 1-A.
 Alpha  occ. eigenvalues --  -24.71577 -24.71127 -19.14195 -14.31339 -10.27985
 Alpha  occ. eigenvalues --  -10.27984 -10.22538 -10.21563 -10.20802 -10.20730
 Alpha  occ. eigenvalues --  -10.20235 -10.19960 -10.19878 -10.18190 -10.17387
 Alpha  occ. eigenvalues --  -10.17325 -10.16350  -1.22414  -1.22174  -1.01219
 Alpha  occ. eigenvalues --   -0.90413  -0.86914  -0.79813  -0.76955  -0.75385
 Alpha  occ. eigenvalues --   -0.75030  -0.68458  -0.67207  -0.64392  -0.62651
 Alpha  occ. eigenvalues --   -0.60975  -0.59710  -0.55542  -0.54804  -0.52152
 Alpha  occ. eigenvalues --   -0.50600  -0.49634  -0.48717  -0.48196  -0.47495
 Alpha  occ. eigenvalues --   -0.46238  -0.45779  -0.44679  -0.43864  -0.43537
 Alpha  occ. eigenvalues --   -0.41725  -0.40690  -0.40467  -0.39727  -0.38988
 Alpha  occ. eigenvalues --   -0.38414  -0.37009  -0.36815  -0.35834  -0.35598
 Alpha  occ. eigenvalues --   -0.35388  -0.34503  -0.33050  -0.32321  -0.31915
 Alpha  occ. eigenvalues --   -0.30493  -0.26632  -0.25402  -0.24832  -0.21570
 Alpha virt. eigenvalues --   -0.01383  -0.00113   0.07082   0.07911   0.08974
 Alpha virt. eigenvalues --    0.11203   0.11935   0.12544   0.13520   0.14495
 Alpha virt. eigenvalues --    0.14641   0.15151   0.15746   0.15953   0.17216

 Mulliken charges:
               1
     1  C   -0.319578
     2  C   -0.180884
     3  C    0.085261
     4  C   -0.084204
     5  C    0.065115
     6  O   -0.565119
     7  N   -0.526955
     8  C   -0.074744
     9  C   -0.100916
    10  C   -0.140363
    11  C    0.315229
    12  C   -0.024421
    13  C    0.320607
    14  C   -0.138785
    15  H    0.116454
    16  H    0.115925
    17  H    0.116120
    18  F   -0.298601
    19  F   -0.303666
    20  H    0.093107
    21  H    0.115546
    22  H    0.099759
    23  H    0.089851
    24  H    0.092983
    25  H    0.095283
    26  H    0.084531
    27  H    0.082295
    28  H    0.321430
    29  H    0.101145
    30  H    0.120496
    31  H    0.102727
    32  C   -0.336053
    33  H    0.103335
    34  H    0.109293
    35  H    0.105699
    36  H    0.242098
 Sum of Mulliken charges =   0.00000

 Dipole moment (field-independent basis, Debye):
    X=              0.5438    Y=              1.8125    Z=              0.1428  Tot=              1.8977
 Quadrupole moment (field-independent basis, Debye-Ang):
   XX=            -72.6879   YY=           -103.3513   ZZ=           -102.7930
   XY=             -0.1322   XZ=             -4.2105   YZ=              1.0264

 Normal termination of Gaussian 09 at Wed Mar  6 12:12:27 2019.
