 Gaussian 09, Revision D.01,
 Gaussian 09:  EM64L-G09RevD.01 24-Apr-2013

 ---------------------------------------------------------------
 # b3lyp/6-31g(d,p) Opt=(maxcycles=50) scrf=(solvent=chloroform)
 ---------------------------------------------------------------

 ------------
 AT3_2ginp009
 ------------
 Symbolic Z-matrix:
 Charge =  0 Multiplicity = 1

 SCF Done:  E(RB3LYP) =  -836.490493306     A.U. after   12 cycles
 SCF Done:  E(RB3LYP) =  -836.495386017     A.U. after   10 cycles
 SCF Done:  E(RB3LYP) =  -836.496267086     A.U. after   10 cycles
 SCF Done:  E(RB3LYP) =  -836.496873059     A.U. after   10 cycles
 SCF Done:  E(RB3LYP) =  -836.497237153     A.U. after   10 cycles
 SCF Done:  E(RB3LYP) =  -836.497466124     A.U. after   10 cycles
 SCF Done:  E(RB3LYP) =  -836.497516785     A.U. after    9 cycles
 SCF Done:  E(RB3LYP) =  -836.497540959     A.U. after    9 cycles
 SCF Done:  E(RB3LYP) =  -836.497545665     A.U. after    8 cycles
 SCF Done:  E(RB3LYP) =  -836.497547377     A.U. after    7 cycles
 SCF Done:  E(RB3LYP) =  -836.497547908     A.U. after    7 cycles
 SCF Done:  E(RB3LYP) =  -836.497548032     A.U. after    7 cycles
 Optimization completed.
    -- Stationary point found.

                         Standard orientation:
 ---------------------------------------------------------------------
 Center     Atomic      Atomic             Coordinates (Angstroms)
 Number     Number       Type             X           Y           Z
 ---------------------------------------------------------------------
      1          6           0       -3.977728   -1.746672   -1.176480
      2          6           0       -2.585118   -1.680241   -0.537187
      3          6           0       -2.034721   -0.250357   -0.353204
      4          6           0       -2.922606    0.660214    0.536598
      5          6           0       -2.246016    2.026476    0.789440
      6          8           0       -1.592540    2.571436   -0.348220
      7          7           0       -0.639224   -0.192759    0.126469
      8          6           0        0.363162   -0.802436   -0.757960
      9          6           0        4.332849    0.450015    0.464041
     10          6           0        3.482252    1.355017   -0.175190
     11          6           0        2.222687    0.915157   -0.556442
     12          6           0        1.754359   -0.383589   -0.343762
     13          6           0        2.646096   -1.240037    0.303194
     14          6           0        3.920968   -0.859593    0.708900
     15          1           0        5.322770    0.769253    0.772510
     16          1           0        3.778697    2.377415   -0.378601
     17          1           0        4.561715   -1.580040    1.203912
     18          9           0        1.396448    1.788410   -1.185920
     19          9           0        2.247653   -2.511768    0.546190
     20          1           0       -4.747517   -1.305315   -0.535999
     21          1           0       -3.997197   -1.212072   -2.133238
     22          1           0       -4.267404   -2.784097   -1.371728
     23          1           0       -2.592087   -2.198165    0.430657
     24          1           0       -1.887289   -2.238328   -1.172593
     25          1           0       -3.840894    0.844086   -0.035543
     26          1           0       -1.540180    1.927265    1.627234
     27          1           0       -3.008317    2.752324    1.095009
     28          1           0       -0.799183    2.021817   -0.460153
     29          1           0        0.321034   -1.898143   -0.797147
     30          1           0        0.169080   -0.435809   -1.771915
     31          1           0       -2.015890    0.223562   -1.343936
     32          6           0       -3.321390    0.046513    1.888224
     33          1           0       -3.945085   -0.844066    1.773295
     34          1           0       -2.444284   -0.232975    2.484184
     35          1           0       -3.892783    0.770569    2.479864
     36          1           0       -0.565976   -0.612047    1.051208
 ---------------------------------------------------------------------

 The electronic state is 1-A.
 Alpha  occ. eigenvalues --  -24.71854 -24.71486 -19.12581 -14.32488 -10.28278
 Alpha  occ. eigenvalues --  -10.28248 -10.22219 -10.21581 -10.21051 -10.20954
 Alpha  occ. eigenvalues --  -10.20944 -10.20123 -10.20120 -10.18167 -10.17818
 Alpha  occ. eigenvalues --  -10.17437 -10.17370  -1.22683  -1.22498  -0.99940
 Alpha  occ. eigenvalues --   -0.91082  -0.87181  -0.80120  -0.77032  -0.75630
 Alpha  occ. eigenvalues --   -0.75316  -0.69236  -0.66217  -0.65156  -0.62914
 Alpha  occ. eigenvalues --   -0.61412  -0.60380  -0.55872  -0.54896  -0.52848
 Alpha  occ. eigenvalues --   -0.50127  -0.49754  -0.48963  -0.48454  -0.47238
 Alpha  occ. eigenvalues --   -0.46091  -0.45465  -0.44648  -0.44146  -0.43909
 Alpha  occ. eigenvalues --   -0.41649  -0.41159  -0.40315  -0.40004  -0.39132
 Alpha  occ. eigenvalues --   -0.38885  -0.37659  -0.37467  -0.36208  -0.35929
 Alpha  occ. eigenvalues --   -0.35556  -0.34808  -0.34077  -0.33015  -0.31418
 Alpha  occ. eigenvalues --   -0.30293  -0.25769  -0.25269  -0.25055  -0.22694
 Alpha virt. eigenvalues --   -0.01767  -0.00315   0.06817   0.08139   0.09445
 Alpha virt. eigenvalues --    0.10197   0.11474   0.13428   0.14144   0.14336
 Alpha virt. eigenvalues --    0.14819   0.15285   0.15874   0.15965   0.16712

 Mulliken charges:
               1
     1  C   -0.328442
     2  C   -0.184283
     3  C    0.078281
     4  C   -0.087503
     5  C    0.073381
     6  O   -0.589251
     7  N   -0.545963
     8  C   -0.081785
     9  C   -0.100530
    10  C   -0.135094
    11  C    0.325935
    12  C   -0.026095
    13  C    0.314748
    14  C   -0.139213
    15  H    0.118205
    16  H    0.119310
    17  H    0.116894
    18  F   -0.295276
    19  F   -0.300785
    20  H    0.111258
    21  H    0.107877
    22  H    0.103918
    23  H    0.093926
    24  H    0.098171
    25  H    0.095931
    26  H    0.079380
    27  H    0.092840
    28  H    0.321058
    29  H    0.108324
    30  H    0.124612
    31  H    0.096570
    32  C   -0.334458
    33  H    0.110335
    34  H    0.101858
    35  H    0.107044
    36  H    0.248820
 Sum of Mulliken charges =   0.00000

 Dipole moment (field-independent basis, Debye):
    X=              1.6898    Y=             -2.5799    Z=              1.2607  Tot=              3.3318
 Quadrupole moment (field-independent basis, Debye-Ang):
   XX=            -86.9598   YY=           -110.1526   ZZ=            -99.7418
   XY=              7.7765   XZ=              0.1491   YZ=              3.0247

 Normal termination of Gaussian 09 at Wed Mar  6 12:13:50 2019.
