 Gaussian 09, Revision D.01,
 Gaussian 09:  EM64L-G09RevD.01 24-Apr-2013

 ---------------------------------------------------------------
 # b3lyp/6-31g(d,p) Opt=(maxcycles=50) scrf=(solvent=chloroform)
 ---------------------------------------------------------------

 ------------
 AT3_1ginp008
 ------------
 Symbolic Z-matrix:
 Charge =  0 Multiplicity = 1

 SCF Done:  E(RB3LYP) =  -836.495354706     A.U. after   12 cycles
 SCF Done:  E(RB3LYP) =  -836.499228805     A.U. after   10 cycles
 SCF Done:  E(RB3LYP) =  -836.497843010     A.U. after   11 cycles
 SCF Done:  E(RB3LYP) =  -836.499733075     A.U. after    8 cycles
 SCF Done:  E(RB3LYP) =  -836.499917451     A.U. after   11 cycles
 SCF Done:  E(RB3LYP) =  -836.500223040     A.U. after   10 cycles
 SCF Done:  E(RB3LYP) =  -836.500149092     A.U. after   10 cycles
 SCF Done:  E(RB3LYP) =  -836.500534411     A.U. after   10 cycles
 SCF Done:  E(RB3LYP) =  -836.500603214     A.U. after    9 cycles
 SCF Done:  E(RB3LYP) =  -836.500609445     A.U. after    8 cycles
 SCF Done:  E(RB3LYP) =  -836.500619048     A.U. after    8 cycles
 SCF Done:  E(RB3LYP) =  -836.500619266     A.U. after    7 cycles
 SCF Done:  E(RB3LYP) =  -836.500619585     A.U. after    6 cycles
 Optimization completed.
    -- Stationary point found.

                         Standard orientation:
 ---------------------------------------------------------------------
 Center     Atomic      Atomic             Coordinates (Angstroms)
 Number     Number       Type             X           Y           Z
 ---------------------------------------------------------------------
      1          6           0       -0.257045   -2.511624    1.474527
      2          6           0       -1.562173   -1.739388    1.243858
      3          6           0       -1.372915   -0.341976    0.620849
      4          6           0       -2.639466    0.546657    0.779877
      5          6           0       -3.848254    0.006077   -0.009690
      6          8           0       -3.661351    0.067315   -1.418217
      7          7           0       -0.983732   -0.490424   -0.810575
      8          6           0        0.046009    0.430514   -1.323140
      9          6           0        3.932040    0.202975    0.619445
     10          6           0        3.161590    1.356917    0.760200
     11          6           0        1.920247    1.406274    0.134845
     12          6           0        1.398077    0.362819   -0.631250
     13          6           0        2.215559   -0.765177   -0.728472
     14          6           0        3.461297   -0.878515   -0.129082
     15          1           0        4.903299    0.142849    1.098923
     16          1           0        3.502571    2.207411    1.339053
     17          1           0        4.037499   -1.788221   -0.251276
     18          9           0        1.175831    2.530191    0.277802
     19          9           0        1.739046   -1.818203   -1.445053
     20          1           0        0.408091   -1.965609    2.152189
     21          1           0       -0.462150   -3.488873    1.922466
     22          1           0        0.294763   -2.690239    0.545878
     23          1           0       -2.232182   -2.331551    0.607088
     24          1           0       -2.078942   -1.621625    2.203064
     25          1           0       -2.906004    0.494178    1.845436
     26          1           0       -4.733281    0.610259    0.227012
     27          1           0       -4.074801   -1.022919    0.314623
     28          1           0       -2.732362   -0.223828   -1.547852
     29          1           0        0.181879    0.198122   -2.384115
     30          1           0       -0.325720    1.452426   -1.264462
     31          1           0       -0.560195    0.153254    1.176692
     32          6           0       -2.390083    2.023373    0.434635
     33          1           0       -2.331331    2.165668   -0.647615
     34          1           0       -3.216943    2.643772    0.797053
     35          1           0       -1.464111    2.396170    0.883857
     36          1           0       -0.656347   -1.438234   -0.972600
 ---------------------------------------------------------------------

 The electronic state is 1-A.
 Alpha  occ. eigenvalues --  -24.72179 -24.71776 -19.11355 -14.33520 -10.28519
 Alpha  occ. eigenvalues --  -10.28490 -10.22508 -10.21528 -10.21435 -10.21209
 Alpha  occ. eigenvalues --  -10.21189 -10.20405 -10.20350 -10.18485 -10.18273
 Alpha  occ. eigenvalues --  -10.17668 -10.16667  -1.22970  -1.22702  -0.98948
 Alpha  occ. eigenvalues --   -0.91530  -0.87413  -0.80067  -0.77258  -0.75872
 Alpha  occ. eigenvalues --   -0.75735  -0.69437  -0.66588  -0.65361  -0.63134
 Alpha  occ. eigenvalues --   -0.61560  -0.59693  -0.56153  -0.55705  -0.52839
 Alpha  occ. eigenvalues --   -0.50291  -0.49564  -0.49172  -0.48264  -0.47347
 Alpha  occ. eigenvalues --   -0.46377  -0.45785  -0.44592  -0.44346  -0.43972
 Alpha  occ. eigenvalues --   -0.42957  -0.41284  -0.40421  -0.39995  -0.39207
 Alpha  occ. eigenvalues --   -0.38890  -0.38336  -0.37331  -0.36475  -0.35985
 Alpha  occ. eigenvalues --   -0.35718  -0.34869  -0.34059  -0.32323  -0.31581
 Alpha  occ. eigenvalues --   -0.30841  -0.26137  -0.25341  -0.24546  -0.23363
 Alpha virt. eigenvalues --   -0.02068  -0.00638   0.06705   0.08519   0.10412
 Alpha virt. eigenvalues --    0.11075   0.12209   0.12900   0.12947   0.13694
 Alpha virt. eigenvalues --    0.14334   0.15122   0.15760   0.15811   0.16505

 Mulliken charges:
               1
     1  C   -0.335195
     2  C   -0.209085
     3  C    0.090108
     4  C   -0.081834
     5  C    0.071004
     6  O   -0.595959
     7  N   -0.548016
     8  C   -0.108768
     9  C   -0.101446
    10  C   -0.135618
    11  C    0.318774
    12  C   -0.017177
    13  C    0.321312
    14  C   -0.134413
    15  H    0.120065
    16  H    0.119135
    17  H    0.119938
    18  F   -0.298298
    19  F   -0.303062
    20  H    0.111317
    21  H    0.109206
    22  H    0.104004
    23  H    0.108609
    24  H    0.106027
    25  H    0.086431
    26  H    0.087871
    27  H    0.071790
    28  H    0.326629
    29  H    0.132388
    30  H    0.132575
    31  H    0.084447
    32  C   -0.329763
    33  H    0.115783
    34  H    0.099505
    35  H    0.099262
    36  H    0.262452
 Sum of Mulliken charges =   0.00000

 Dipole moment (field-independent basis, Debye):
    X=              4.7426    Y=             -1.0918    Z=              2.6546  Tot=              5.5436
 Quadrupole moment (field-independent basis, Debye-Ang):
   XX=           -103.7460   YY=           -100.7808   ZZ=           -102.2990
   XY=              1.4129   XZ=             -6.5365   YZ=              0.2795

 Normal termination of Gaussian 09 at Wed Mar  6 11:38:32 2019.
