 Gaussian 09, Revision D.01,
 Gaussian 09:  EM64L-G09RevD.01 24-Apr-2013

 ---------------------------------------------------------------
 # b3lyp/6-31g(d,p) Opt=(maxcycles=50) scrf=(solvent=chloroform)
 ---------------------------------------------------------------

 ------------
 AT3_1ginp005
 ------------
 Symbolic Z-matrix:
 Charge =  0 Multiplicity = 1

 SCF Done:  E(RB3LYP) =  -836.494960267     A.U. after   12 cycles
 SCF Done:  E(RB3LYP) =  -836.498173782     A.U. after   11 cycles
 SCF Done:  E(RB3LYP) =  -836.497177983     A.U. after   10 cycles
 SCF Done:  E(RB3LYP) =  -836.498454199     A.U. after    8 cycles
 SCF Done:  E(RB3LYP) =  -836.498350520     A.U. after   10 cycles
 SCF Done:  E(RB3LYP) =  -836.498524686     A.U. after   10 cycles
 SCF Done:  E(RB3LYP) =  -836.498709148     A.U. after    9 cycles
 SCF Done:  E(RB3LYP) =  -836.498801333     A.U. after    9 cycles
 SCF Done:  E(RB3LYP) =  -836.498808124     A.U. after    8 cycles
 SCF Done:  E(RB3LYP) =  -836.498811973     A.U. after    8 cycles
 SCF Done:  E(RB3LYP) =  -836.498816051     A.U. after    8 cycles
 SCF Done:  E(RB3LYP) =  -836.498820414     A.U. after    8 cycles
 SCF Done:  E(RB3LYP) =  -836.498826789     A.U. after    8 cycles
 SCF Done:  E(RB3LYP) =  -836.498827652     A.U. after    7 cycles
 SCF Done:  E(RB3LYP) =  -836.498830650     A.U. after    8 cycles
 SCF Done:  E(RB3LYP) =  -836.498829935     A.U. after    7 cycles
 SCF Done:  E(RB3LYP) =  -836.498830277     A.U. after    6 cycles
 Optimization completed.
    -- Stationary point found.

                         Standard orientation:
 ---------------------------------------------------------------------
 Center     Atomic      Atomic             Coordinates (Angstroms)
 Number     Number       Type             X           Y           Z
 ---------------------------------------------------------------------
      1          6           0       -4.254834    1.941452   -0.062588
      2          6           0       -2.800614    1.692713    0.349652
      3          6           0       -2.092312    0.543416   -0.394350
      4          6           0       -2.787586   -0.838240   -0.242690
      5          6           0       -2.750469   -1.362997    1.206381
      6          8           0       -1.441811   -1.708029    1.639867
      7          7           0       -0.675831    0.475048    0.075025
      8          6           0        0.322484    0.396613   -1.009312
      9          6           0        4.307872   -0.102001    0.617209
     10          6           0        3.761801    1.177861    0.505556
     11          6           0        2.482706    1.301827   -0.020873
     12          6           0        1.713823    0.220499   -0.453562
     13          6           0        2.307765   -1.034589   -0.307304
     14          6           0        3.583291   -1.223415    0.210426
     15          1           0        5.304913   -0.226556    1.026290
     16          1           0        4.302592    2.063348    0.818561
     17          1           0        3.985740   -2.226475    0.290200
     18          9           0        1.936005    2.538723   -0.121647
     19          9           0        1.603614   -2.120430   -0.703542
     20          1           0       -4.914577    1.119420    0.229882
     21          1           0       -4.635526    2.850450    0.413262
     22          1           0       -4.343361    2.072228   -1.147008
     23          1           0       -2.221050    2.606375    0.161578
     24          1           0       -2.747725    1.516311    1.431626
     25          1           0       -3.844395   -0.688989   -0.500678
     26          1           0       -3.366328   -2.268874    1.274814
     27          1           0       -3.209156   -0.622356    1.883318
     28          1           0       -0.873115   -0.996709    1.271186
     29          1           0        0.082899   -0.462094   -1.635998
     30          1           0        0.296380    1.289196   -1.651879
     31          1           0       -2.104689    0.801646   -1.466327
     32          6           0       -2.223235   -1.890784   -1.210183
     33          1           0       -1.200827   -2.168730   -0.942558
     34          1           0       -2.827764   -2.803597   -1.174267
     35          1           0       -2.228653   -1.528069   -2.244068
     36          1           0       -0.470770    1.313596    0.614494
 ---------------------------------------------------------------------

 The electronic state is 1-A.
 Alpha  occ. eigenvalues --  -24.71743 -24.71577 -19.11169 -14.33461 -10.28346
 Alpha  occ. eigenvalues --  -10.28327 -10.22433 -10.21661 -10.21416 -10.21143
 Alpha  occ. eigenvalues --  -10.21017 -10.20190 -10.20127 -10.18671 -10.18273
 Alpha  occ. eigenvalues --  -10.17745 -10.16751  -1.22700  -1.22541  -0.98821
 Alpha  occ. eigenvalues --   -0.91570  -0.87281  -0.80285  -0.77170  -0.75678
 Alpha  occ. eigenvalues --   -0.75591  -0.69463  -0.66428  -0.64865  -0.62989
 Alpha  occ. eigenvalues --   -0.61389  -0.60521  -0.56018  -0.55189  -0.52996
 Alpha  occ. eigenvalues --   -0.49864  -0.49422  -0.49000  -0.48068  -0.46872
 Alpha  occ. eigenvalues --   -0.46105  -0.45687  -0.44948  -0.44211  -0.43762
 Alpha  occ. eigenvalues --   -0.42874  -0.41955  -0.40973  -0.39721  -0.39218
 Alpha  occ. eigenvalues --   -0.38053  -0.37302  -0.37047  -0.36642  -0.36150
 Alpha  occ. eigenvalues --   -0.35654  -0.35362  -0.34499  -0.31996  -0.31622
 Alpha  occ. eigenvalues --   -0.30727  -0.25862  -0.25095  -0.24400  -0.23464
 Alpha virt. eigenvalues --   -0.01858  -0.00376   0.06943   0.08420   0.10243
 Alpha virt. eigenvalues --    0.10793   0.11793   0.13071   0.13383   0.13917
 Alpha virt. eigenvalues --    0.14332   0.15193   0.15484   0.16003   0.16389

 Mulliken charges:
               1
     1  C   -0.328135
     2  C   -0.206979
     3  C    0.088501
     4  C   -0.079074
     5  C    0.072409
     6  O   -0.596926
     7  N   -0.553932
     8  C   -0.086379
     9  C   -0.099309
    10  C   -0.138773
    11  C    0.322525
    12  C   -0.031444
    13  C    0.326612
    14  C   -0.137905
    15  H    0.119161
    16  H    0.118099
    17  H    0.119533
    18  F   -0.302243
    19  F   -0.295071
    20  H    0.115075
    21  H    0.108715
    22  H    0.109150
    23  H    0.101714
    24  H    0.109659
    25  H    0.090086
    26  H    0.087647
    27  H    0.070169
    28  H    0.325481
    29  H    0.131514
    30  H    0.108781
    31  H    0.083193
    32  C   -0.326331
    33  H    0.119039
    34  H    0.099806
    35  H    0.094769
    36  H    0.260863
 Sum of Mulliken charges =   0.00000

 Dipole moment (field-independent basis, Debye):
    X=              1.1015    Y=              3.0811    Z=             -1.5948  Tot=              3.6401
 Quadrupole moment (field-independent basis, Debye-Ang):
   XX=            -83.1835   YY=           -105.5282   ZZ=           -104.8322
   XY=             -4.5519   XZ=              5.9598   YZ=              4.8655

 Normal termination of Gaussian 09 at Wed Mar  6 11:19:20 2019.
