 Gaussian 09, Revision D.01,
 Gaussian 09:  EM64L-G09RevD.01 24-Apr-2013

 ---------------------------------------------------------------
 # b3lyp/6-31g(d,p) Opt=(maxcycles=50) scrf=(solvent=chloroform)
 ---------------------------------------------------------------

 ------------
 AT3_1ginp003
 ------------
 Symbolic Z-matrix:
 Charge =  0 Multiplicity = 1

 SCF Done:  E(RB3LYP) =  -836.495703043     A.U. after   12 cycles
 SCF Done:  E(RB3LYP) =  -836.499069136     A.U. after   10 cycles
 SCF Done:  E(RB3LYP) =  -836.497379764     A.U. after   10 cycles
 SCF Done:  E(RB3LYP) =  -836.499279593     A.U. after    8 cycles
 SCF Done:  E(RB3LYP) =  -836.499492620     A.U. after    9 cycles
 SCF Done:  E(RB3LYP) =  -836.499580503     A.U. after    9 cycles
 SCF Done:  E(RB3LYP) =  -836.499531762     A.U. after    9 cycles
 SCF Done:  E(RB3LYP) =  -836.499638807     A.U. after    9 cycles
 SCF Done:  E(RB3LYP) =  -836.499643404     A.U. after    8 cycles
 SCF Done:  E(RB3LYP) =  -836.499645263     A.U. after    8 cycles
 SCF Done:  E(RB3LYP) =  -836.499472800     A.U. after    9 cycles
 SCF Done:  E(RB3LYP) =  -836.499577719     A.U. after   10 cycles
 SCF Done:  E(RB3LYP) =  -836.499650743     A.U. after    9 cycles
 SCF Done:  E(RB3LYP) =  -836.499651726     A.U. after    9 cycles
 SCF Done:  E(RB3LYP) =  -836.499651044     A.U. after    8 cycles
 SCF Done:  E(RB3LYP) =  -836.499656883     A.U. after    8 cycles
 SCF Done:  E(RB3LYP) =  -836.499657068     A.U. after    7 cycles
 SCF Done:  E(RB3LYP) =  -836.499656414     A.U. after    7 cycles
 SCF Done:  E(RB3LYP) =  -836.499656602     A.U. after    6 cycles
 SCF Done:  E(RB3LYP) =  -836.499656666     A.U. after    6 cycles
 Optimization completed.
    -- Stationary point found.

                         Standard orientation:
 ---------------------------------------------------------------------
 Center     Atomic      Atomic             Coordinates (Angstroms)
 Number     Number       Type             X           Y           Z
 ---------------------------------------------------------------------
      1          6           0       -2.252625    3.043578   -0.296331
      2          6           0       -2.831873    1.717406    0.212942
      3          6           0       -2.191817    0.473935   -0.432347
      4          6           0       -3.012394   -0.822801   -0.190735
      5          6           0       -3.007102   -1.261731    1.287376
      6          8           0       -1.732585   -1.710411    1.728097
      7          7           0       -0.788815    0.318892    0.053645
      8          6           0        0.210609    0.128417   -1.014299
      9          6           0        4.207932   -0.092809    0.643926
     10          6           0        3.597422   -1.253619    0.168286
     11          6           0        2.313367   -1.160836   -0.356836
     12          6           0        1.603910    0.038061   -0.443073
     13          6           0        2.264105    1.162225    0.055607
     14          6           0        3.542703    1.134203    0.593630
     15          1           0        5.208593   -0.144004    1.059774
     16          1           0        4.093398   -2.216665    0.200588
     17          1           0        3.993085    2.048830    0.961065
     18          9           0        1.720839   -2.286208   -0.817020
     19          9           0        1.597640    2.346042    0.013307
     20          1           0       -2.425770    3.159194   -1.371876
     21          1           0       -2.719198    3.893329    0.211204
     22          1           0       -1.172370    3.116977   -0.127867
     23          1           0       -2.720040    1.659477    1.303548
     24          1           0       -3.909858    1.696731    0.015946
     25          1           0       -4.053494   -0.579765   -0.447943
     26          1           0       -3.708296   -2.096038    1.416651
     27          1           0       -3.379090   -0.438839    1.920682
     28          1           0       -1.102974   -1.073687    1.323853
     29          1           0       -0.015421   -0.795371   -1.547000
     30          1           0        0.174404    0.946878   -1.750207
     31          1           0       -2.174665    0.649451   -1.520783
     32          6           0       -2.560324   -1.978214   -1.096471
     33          1           0       -1.565185   -2.332760   -0.815313
     34          1           0       -3.244967   -2.828348   -1.004232
     35          1           0       -2.539776   -1.677413   -2.149673
     36          1           0       -0.525770    1.157686    0.564649
 ---------------------------------------------------------------------

 The electronic state is 1-A.
 Alpha  occ. eigenvalues --  -24.72075 -24.71564 -19.11236 -14.33444 -10.28454
 Alpha  occ. eigenvalues --  -10.28433 -10.22495 -10.21596 -10.21437 -10.21288
 Alpha  occ. eigenvalues --  -10.21094 -10.20308 -10.20215 -10.18577 -10.18308
 Alpha  occ. eigenvalues --  -10.17785 -10.16795  -1.22891  -1.22599  -0.98874
 Alpha  occ. eigenvalues --   -0.91645  -0.87387  -0.80277  -0.77142  -0.75800
 Alpha  occ. eigenvalues --   -0.75761  -0.69287  -0.66651  -0.65284  -0.63098
 Alpha  occ. eigenvalues --   -0.61477  -0.59755  -0.56152  -0.55599  -0.53075
 Alpha  occ. eigenvalues --   -0.50081  -0.49433  -0.49125  -0.48309  -0.47077
 Alpha  occ. eigenvalues --   -0.46188  -0.45811  -0.44683  -0.44202  -0.43879
 Alpha  occ. eigenvalues --   -0.42589  -0.41368  -0.40982  -0.39897  -0.39376
 Alpha  occ. eigenvalues --   -0.39159  -0.38087  -0.37200  -0.36164  -0.35798
 Alpha  occ. eigenvalues --   -0.35779  -0.35070  -0.34263  -0.32275  -0.31740
 Alpha  occ. eigenvalues --   -0.30808  -0.25952  -0.25207  -0.24450  -0.23448
 Alpha virt. eigenvalues --   -0.01938  -0.00484   0.06614   0.08427   0.10339
 Alpha virt. eigenvalues --    0.10971   0.11646   0.12935   0.13549   0.13937
 Alpha virt. eigenvalues --    0.14498   0.14941   0.15305   0.16186   0.16588

 Mulliken charges:
               1
     1  C   -0.331635
     2  C   -0.207850
     3  C    0.092685
     4  C   -0.081413
     5  C    0.071917
     6  O   -0.595664
     7  N   -0.555236
     8  C   -0.082640
     9  C   -0.099371
    10  C   -0.137935
    11  C    0.321286
    12  C   -0.029825
    13  C    0.322138
    14  C   -0.137031
    15  H    0.119880
    16  H    0.119769
    17  H    0.119420
    18  F   -0.296368
    19  F   -0.301305
    20  H    0.110529
    21  H    0.110936
    22  H    0.104917
    23  H    0.108746
    24  H    0.106008
    25  H    0.085573
    26  H    0.088122
    27  H    0.070451
    28  H    0.324265
    29  H    0.130361
    30  H    0.111032
    31  H    0.083794
    32  C   -0.323103
    33  H    0.118009
    34  H    0.100826
    35  H    0.095290
    36  H    0.263423
 Sum of Mulliken charges =   0.00000

 Dipole moment (field-independent basis, Debye):
    X=              1.5396    Y=              3.0899    Z=             -1.7398  Tot=              3.8659
 Quadrupole moment (field-independent basis, Debye-Ang):
   XX=            -83.8493   YY=           -105.9998   ZZ=           -105.2623
   XY=             -4.7899   XZ=              7.1973   YZ=              5.2359

 Normal termination of Gaussian 09 at Wed Mar  6 15:38:36 2019.
