 Gaussian 09, Revision D.01,
 Gaussian 09:  EM64L-G09RevD.01 24-Apr-2013

 ---------------------------------------------------------------
 # b3lyp/6-31g(d,p) Opt=(maxcycles=50) scrf=(solvent=chloroform)
 ---------------------------------------------------------------

 ------------
 AT3_1ginp001
 ------------
 Symbolic Z-matrix:
 Charge =  0 Multiplicity = 1

 SCF Done:  E(RB3LYP) =  -836.496918842     A.U. after   12 cycles
 SCF Done:  E(RB3LYP) =  -836.500242242     A.U. after   10 cycles
 SCF Done:  E(RB3LYP) =  -836.498466401     A.U. after   10 cycles
 SCF Done:  E(RB3LYP) =  -836.500516064     A.U. after    8 cycles
 SCF Done:  E(RB3LYP) =  -836.500793991     A.U. after   10 cycles
 SCF Done:  E(RB3LYP) =  -836.500221150     A.U. after   10 cycles
 SCF Done:  E(RB3LYP) =  -836.500841683     A.U. after    7 cycles
 SCF Done:  E(RB3LYP) =  -836.500881108     A.U. after    9 cycles
 SCF Done:  E(RB3LYP) =  -836.500967408     A.U. after    9 cycles
 SCF Done:  E(RB3LYP) =  -836.500974847     A.U. after    8 cycles
 SCF Done:  E(RB3LYP) =  -836.500977425     A.U. after    8 cycles
 SCF Done:  E(RB3LYP) =  -836.500977739     A.U. after    7 cycles
 SCF Done:  E(RB3LYP) =  -836.500977890     A.U. after    7 cycles
 SCF Done:  E(RB3LYP) =  -836.500977675     A.U. after    7 cycles
 SCF Done:  E(RB3LYP) =  -836.500977348     A.U. after    7 cycles
 SCF Done:  E(RB3LYP) =  -836.500976940     A.U. after    7 cycles
 SCF Done:  E(RB3LYP) =  -836.500976773     A.U. after    7 cycles
 SCF Done:  E(RB3LYP) =  -836.500976637     A.U. after    6 cycles
 SCF Done:  E(RB3LYP) =  -836.500976525     A.U. after    6 cycles
 Optimization completed.
    -- Stationary point found.

                         Standard orientation:
 ---------------------------------------------------------------------
 Center     Atomic      Atomic             Coordinates (Angstroms)
 Number     Number       Type             X           Y           Z
 ---------------------------------------------------------------------
      1          6           0        2.388743    2.602337   -0.036321
      2          6           0        2.457719    1.515366    1.043350
      3          6           0        2.069699    0.091307    0.577101
      4          6           0        3.020255   -0.526975   -0.484182
      5          6           0        2.665898   -2.003879   -0.763278
      6          8           0        1.408831   -2.193270   -1.388075
      7          7           0        0.674775   -0.006396    0.075506
      8          6           0       -0.374714    0.245616    1.078191
      9          6           0       -4.296758   -0.039746   -0.746128
     10          6           0       -3.845512   -1.074727    0.073177
     11          6           0       -2.584190   -0.965349    0.647962
     12          6           0       -1.745229    0.133491    0.455535
     13          6           0       -2.250364    1.133758   -0.377211
     14          6           0       -3.498228    1.081411   -0.981776
     15          1           0       -5.276693   -0.107247   -1.206623
     16          1           0       -4.446888   -1.954950    0.268360
     17          1           0       -3.823525    1.896885   -1.617070
     18          9           0       -2.148860   -1.969050    1.442733
     19          9           0       -1.457904    2.213246   -0.606671
     20          1           0        1.373633    2.718903   -0.431767
     21          1           0        2.683645    3.571250    0.378217
     22          1           0        3.054258    2.389434   -0.879524
     23          1           0        3.465464    1.481393    1.470208
     24          1           0        1.803152    1.798900    1.876054
     25          1           0        2.885446    0.015911   -1.431089
     26          1           0        2.732967   -2.563799    0.188603
     27          1           0        3.424618   -2.429786   -1.431480
     28          1           0        0.809016   -1.592161   -0.892455
     29          1           0       -0.274628   -0.501866    1.868591
     30          1           0       -0.285401    1.235121    1.548080
     31          1           0        2.114722   -0.561248    1.461897
     32          6           0        4.497363   -0.429422   -0.072522
     33          1           0        5.130641   -0.945470   -0.801381
     34          1           0        4.844140    0.605165   -0.014118
     35          1           0        4.670445   -0.895739    0.904924
     36          1           0        0.553708    0.653337   -0.691317
 ---------------------------------------------------------------------

 The electronic state is 1-A.
 Alpha  occ. eigenvalues --  -24.72015 -24.71534 -19.11045 -14.33580 -10.28426
 Alpha  occ. eigenvalues --  -10.28415 -10.22588 -10.21719 -10.21464 -10.21311
 Alpha  occ. eigenvalues --  -10.21061 -10.20274 -10.20190 -10.18586 -10.18149
 Alpha  occ. eigenvalues --  -10.17614 -10.17493  -1.22852  -1.22595  -0.98868
 Alpha  occ. eigenvalues --   -0.91768  -0.87369  -0.80449  -0.77363  -0.75757
 Alpha  occ. eigenvalues --   -0.75372  -0.69604  -0.66090  -0.65651  -0.63078
 Alpha  occ. eigenvalues --   -0.61939  -0.59747  -0.56272  -0.55620  -0.52827
 Alpha  occ. eigenvalues --   -0.50118  -0.49787  -0.49101  -0.48172  -0.47329
 Alpha  occ. eigenvalues --   -0.46521  -0.46139  -0.44447  -0.44060  -0.43107
 Alpha  occ. eigenvalues --   -0.42560  -0.41658  -0.40713  -0.39962  -0.39590
 Alpha  occ. eigenvalues --   -0.39220  -0.37719  -0.37425  -0.36542  -0.35814
 Alpha  occ. eigenvalues --   -0.35216  -0.34924  -0.34259  -0.33445  -0.31659
 Alpha  occ. eigenvalues --   -0.31089  -0.25908  -0.25173  -0.24421  -0.23253
 Alpha virt. eigenvalues --   -0.01871  -0.00459   0.06513   0.08350   0.09703
 Alpha virt. eigenvalues --    0.10518   0.11776   0.13211   0.13904   0.14354
 Alpha virt. eigenvalues --    0.14532   0.15028   0.15125   0.15987   0.16980

 Mulliken charges:
               1
     1  C   -0.336198
     2  C   -0.190631
     3  C    0.088963
     4  C   -0.097035
     5  C    0.084934
     6  O   -0.602344
     7  N   -0.559402
     8  C   -0.075871
     9  C   -0.099066
    10  C   -0.138383
    11  C    0.319927
    12  C   -0.031190
    13  C    0.323371
    14  C   -0.137027
    15  H    0.119684
    16  H    0.119277
    17  H    0.119345
    18  F   -0.296872
    19  F   -0.301178
    20  H    0.105216
    21  H    0.110065
    22  H    0.113328
    23  H    0.103615
    24  H    0.098163
    25  H    0.092038
    26  H    0.064623
    27  H    0.086364
    28  H    0.321500
    29  H    0.127311
    30  H    0.113737
    31  H    0.096280
    32  C   -0.331082
    33  H    0.106421
    34  H    0.111975
    35  H    0.106956
    36  H    0.263187
 Sum of Mulliken charges =   0.00000

 Dipole moment (field-independent basis, Debye):
    X=             -1.1937    Y=              3.1751    Z=              1.5636  Tot=              3.7351
 Quadrupole moment (field-independent basis, Debye-Ang):
   XX=            -83.4173   YY=           -109.0250   ZZ=           -103.1088
   XY=              3.4400   XZ=              6.7374   YZ=             -4.9467

 Normal termination of Gaussian 09 at Wed Mar  6 11:44:35 2019.
