 Gaussian 09, Revision D.01,
 Gaussian 09:  EM64L-G09RevD.01 24-Apr-2013

 ----------------------------------------------------------------------
 # b3lyp/6-31g(d,p) Opt=(maxcycles=100,MaxStep=1) scrf=(solvent=chlorof
 orm)
 ----------------------------------------------------------------------

 ------------
 AT3_2ginp008
 ------------
 Symbolic Z-matrix:
 Charge =  0 Multiplicity = 1

 SCF Done:  E(RB3LYP) =  -836.492128804     A.U. after   12 cycles
 SCF Done:  E(RB3LYP) =  -836.492128696     A.U. after    6 cycles
 Optimization completed.
    -- Stationary point found.

                         Standard orientation:
 ---------------------------------------------------------------------
 Center     Atomic      Atomic             Coordinates (Angstroms)
 Number     Number       Type             X           Y           Z
 ---------------------------------------------------------------------
      1          6           0       -2.052027    3.195727   -0.207210
      2          6           0       -2.553547    1.779551   -0.519431
      3          6           0       -1.894874    0.683262    0.340024
      4          6           0       -2.672649   -0.660661    0.348941
      5          6           0       -2.915637   -1.201740   -1.060853
      6          8           0       -3.362227   -2.555925   -0.944715
      7          7           0       -0.512839    0.466164   -0.129315
      8          6           0        0.411094    0.028955    0.925332
      9          6           0        4.465061   -0.314317   -0.586594
     10          6           0        3.865270    0.941985   -0.476791
     11          6           0        2.567801    1.006921    0.010857
     12          6           0        1.821313   -0.107080    0.399922
     13          6           0        2.471441   -1.334583    0.262377
     14          6           0        3.770679   -1.465858   -0.216516
     15          1           0        5.478883   -0.395069   -0.964222
     16          1           0        4.380149    1.852822   -0.759350
     17          1           0        4.213782   -2.452042   -0.292767
     18          9           0        1.971323    2.224163    0.113434
     19          9           0        1.806214   -2.455834    0.623696
     20          1           0       -2.531259    3.932523   -0.859392
     21          1           0       -2.276475    3.470186    0.829396
     22          1           0       -0.969563    3.297701   -0.344853
     23          1           0       -3.637946    1.752137   -0.370598
     24          1           0       -2.380001    1.549792   -1.578596
     25          1           0       -2.023559   -1.397699    0.841402
     26          1           0       -1.980466   -1.141912   -1.633244
     27          1           0       -3.671761   -0.590937   -1.578821
     28          1           0       -3.528609   -2.884651   -1.837568
     29          1           0        0.418480    0.721446    1.786242
     30          1           0        0.086525   -0.942157    1.304034
     31          1           0       -1.890198    1.047883    1.385680
     32          6           0       -3.971830   -0.583255    1.162310
     33          1           0       -4.682596    0.129704    0.729126
     34          1           0       -4.459997   -1.560502    1.186354
     35          1           0       -3.774919   -0.273327    2.194363
     36          1           0       -0.153180    1.339961   -0.502632
 ---------------------------------------------------------------------

 The electronic state is 1-A.
 Alpha  occ. eigenvalues --  -24.71757 -24.71269 -19.13605 -14.31636 -10.28144
 Alpha  occ. eigenvalues --  -10.28139 -10.21766 -10.21690 -10.20995 -10.20897
 Alpha  occ. eigenvalues --  -10.20858 -10.20084 -10.20000 -10.18107 -10.17930
 Alpha  occ. eigenvalues --  -10.17560 -10.16650  -1.22598  -1.22320  -1.00544
 Alpha  occ. eigenvalues --   -0.90823  -0.87090  -0.80040  -0.76957  -0.75525
 Alpha  occ. eigenvalues --   -0.75425  -0.68715  -0.66742  -0.64785  -0.62803
 Alpha  occ. eigenvalues --   -0.61156  -0.60140  -0.55662  -0.53868  -0.52616
 Alpha  occ. eigenvalues --   -0.50421  -0.49843  -0.48854  -0.48112  -0.47220
 Alpha  occ. eigenvalues --   -0.46432  -0.45888  -0.44868  -0.43863  -0.43433
 Alpha  occ. eigenvalues --   -0.42185  -0.41808  -0.40496  -0.40196  -0.39143
 Alpha  occ. eigenvalues --   -0.37972  -0.37329  -0.36899  -0.35973  -0.35564
 Alpha  occ. eigenvalues --   -0.35403  -0.34694  -0.33639  -0.32413  -0.31704
 Alpha  occ. eigenvalues --   -0.30034  -0.26046  -0.25604  -0.24965  -0.22337
 Alpha virt. eigenvalues --   -0.01573  -0.00245   0.07163   0.08728   0.09085
 Alpha virt. eigenvalues --    0.10452   0.11167   0.12761   0.13666   0.13933
 Alpha virt. eigenvalues --    0.14549   0.14944   0.15931   0.16280   0.16929

 Mulliken charges:
               1
     1  C   -0.330269
     2  C   -0.208686
     3  C    0.092349
     4  C   -0.057878
     5  C    0.064182
     6  O   -0.573733
     7  N   -0.532469
     8  C   -0.082500
     9  C   -0.100431
    10  C   -0.137911
    11  C    0.320249
    12  C   -0.023327
    13  C    0.316231
    14  C   -0.139768
    15  H    0.117425
    16  H    0.117198
    17  H    0.116968
    18  F   -0.303420
    19  F   -0.297949
    20  H    0.107609
    21  H    0.110162
    22  H    0.104363
    23  H    0.105416
    24  H    0.105690
    25  H    0.094497
    26  H    0.095154
    27  H    0.076882
    28  H    0.318120
    29  H    0.100033
    30  H    0.123496
    31  H    0.066728
    32  C   -0.325746
    33  H    0.098766
    34  H    0.116009
    35  H    0.098581
    36  H    0.247978
 Sum of Mulliken charges =   0.00000

 Dipole moment (field-independent basis, Debye):
    X=              1.6119    Y=              1.6409    Z=             -1.3720  Tot=              2.6783
 Quadrupole moment (field-independent basis, Debye-Ang):
   XX=            -88.3417   YY=           -103.4169   ZZ=            -96.9167
   XY=             -4.4604   XZ=              1.5974   YZ=              3.2698

 Normal termination of Gaussian 09 at Wed Mar  6 18:39:19 2019.
