 Gaussian 09, Revision D.01,
 Gaussian 09:  EM64L-G09RevD.01 24-Apr-2013

 ---------------------------------------------------------------
 # b3lyp/6-31g(d,p) Opt=(maxcycles=50) scrf=(solvent=chloroform)
 ---------------------------------------------------------------

 ------------
 AT3_2ginp001
 ------------
 Symbolic Z-matrix:
 Charge =  0 Multiplicity = 1

 SCF Done:  E(RB3LYP) =  -836.497028221     A.U. after   12 cycles
 SCF Done:  E(RB3LYP) =  -836.500327458     A.U. after   10 cycles
 SCF Done:  E(RB3LYP) =  -836.498496607     A.U. after   11 cycles
 SCF Done:  E(RB3LYP) =  -836.500641544     A.U. after    8 cycles
 SCF Done:  E(RB3LYP) =  -836.500867000     A.U. after    9 cycles
 SCF Done:  E(RB3LYP) =  -836.500848782     A.U. after    9 cycles
 SCF Done:  E(RB3LYP) =  -836.500911317     A.U. after    9 cycles
 SCF Done:  E(RB3LYP) =  -836.500951281     A.U. after    8 cycles
 SCF Done:  E(RB3LYP) =  -836.500952208     A.U. after    7 cycles
 SCF Done:  E(RB3LYP) =  -836.500952436     A.U. after    6 cycles
 SCF Done:  E(RB3LYP) =  -836.500952515     A.U. after    6 cycles
 Optimization completed.
    -- Stationary point found.

                         Standard orientation:
 ---------------------------------------------------------------------
 Center     Atomic      Atomic             Coordinates (Angstroms)
 Number     Number       Type             X           Y           Z
 ---------------------------------------------------------------------
      1          6           0       -3.960526   -1.851427   -1.174925
      2          6           0       -2.574754   -1.673818   -0.543280
      3          6           0       -2.079347   -0.213701   -0.469293
      4          6           0       -2.984172    0.729608    0.368022
      5          6           0       -2.529983    2.196477    0.223987
      6          8           0       -1.287022    2.469685    0.852853
      7          7           0       -0.673398   -0.105640    0.003973
      8          6           0        0.345158   -0.535920   -0.970954
      9          6           0        4.331003    0.074274    0.620830
     10          6           0        3.799227    1.002193   -0.275289
     11          6           0        2.518467    0.786865   -0.770792
     12          6           0        1.736813   -0.317811   -0.427575
     13          6           0        2.319998   -1.206639    0.477059
     14          6           0        3.592079   -1.045021    1.008919
     15          1           0        5.327790    0.225053    1.021603
     16          1           0        4.353215    1.879290   -0.588897
     17          1           0        3.980665   -1.777574    1.706670
     18          9           0        2.002214    1.686553   -1.638409
     19          9           0        1.585473   -2.282797    0.854717
     20          1           0       -4.199741   -2.913401   -1.288840
     21          1           0       -4.751186   -1.401332   -0.567076
     22          1           0       -4.003828   -1.393983   -2.169975
     23          1           0       -2.568114   -2.111156    0.463427
     24          1           0       -1.849850   -2.252588   -1.127643
     25          1           0       -3.986138    0.678297   -0.078720
     26          1           0       -3.276752    2.853729    0.686995
     27          1           0       -2.499114    2.453951   -0.850010
     28          1           0       -0.720421    1.712451    0.587031
     29          1           0        0.241955   -1.590939   -1.260815
     30          1           0        0.217817    0.065412   -1.874048
     31          1           0       -2.076110    0.187917   -1.492998
     32          6           0       -3.098672    0.332487    1.847974
     33          1           0       -2.134909    0.417705    2.358395
     34          1           0       -3.795146    1.001615    2.364053
     35          1           0       -3.468831   -0.689154    1.975217
     36          1           0       -0.562273   -0.662498    0.850128
 ---------------------------------------------------------------------

 The electronic state is 1-A.
 Alpha  occ. eigenvalues --  -24.71790 -24.71482 -19.11257 -14.33521 -10.28345
 Alpha  occ. eigenvalues --  -10.28340 -10.22548 -10.21604 -10.21463 -10.21196
 Alpha  occ. eigenvalues --  -10.21015 -10.20200 -10.20128 -10.18415 -10.18220
 Alpha  occ. eigenvalues --  -10.17619 -10.17004  -1.22731  -1.22537  -0.98946
 Alpha  occ. eigenvalues --   -0.91643  -0.87291  -0.80310  -0.77142  -0.75679
 Alpha  occ. eigenvalues --   -0.75349  -0.69319  -0.67031  -0.64891  -0.62998
 Alpha  occ. eigenvalues --   -0.61477  -0.60400  -0.56028  -0.55277  -0.52735
 Alpha  occ. eigenvalues --   -0.50065  -0.49031  -0.48778  -0.48292  -0.46949
 Alpha  occ. eigenvalues --   -0.46304  -0.46105  -0.45453  -0.44263  -0.43912
 Alpha  occ. eigenvalues --   -0.41995  -0.41293  -0.40925  -0.39576  -0.39177
 Alpha  occ. eigenvalues --   -0.38822  -0.37628  -0.36696  -0.36257  -0.36090
 Alpha  occ. eigenvalues --   -0.35614  -0.35242  -0.34860  -0.32570  -0.31517
 Alpha  occ. eigenvalues --   -0.30994  -0.25843  -0.25095  -0.24546  -0.23234
 Alpha virt. eigenvalues --   -0.01835  -0.00383   0.06944   0.08276   0.09830
 Alpha virt. eigenvalues --    0.10648   0.10966   0.13679   0.13842   0.14334
 Alpha virt. eigenvalues --    0.14793   0.15041   0.15796   0.16162   0.16497

 Mulliken charges:
               1
     1  C   -0.328170
     2  C   -0.187784
     3  C    0.083649
     4  C   -0.093795
     5  C    0.075006
     6  O   -0.593221
     7  N   -0.554502
     8  C   -0.078609
     9  C   -0.099156
    10  C   -0.138992
    11  C    0.323343
    12  C   -0.032803
    13  C    0.324056
    14  C   -0.138306
    15  H    0.119115
    16  H    0.118996
    17  H    0.118363
    18  F   -0.297188
    19  F   -0.302423
    20  H    0.106464
    21  H    0.113345
    22  H    0.107756
    23  H    0.098925
    24  H    0.100569
    25  H    0.091613
    26  H    0.087400
    27  H    0.066249
    28  H    0.322480
    29  H    0.111343
    30  H    0.127471
    31  H    0.094976
    32  C   -0.325134
    33  H    0.111045
    34  H    0.105511
    35  H    0.102653
    36  H    0.259756
 Sum of Mulliken charges =   0.00000

 Dipole moment (field-independent basis, Debye):
    X=              1.0026    Y=             -3.3827    Z=             -0.8901  Tot=              3.6387
 Quadrupole moment (field-independent basis, Debye-Ang):
   XX=            -83.3868   YY=           -110.7386   ZZ=           -101.3610
   XY=              3.8577   XZ=              5.4164   YZ=             -3.3614

 Normal termination of Gaussian 09 at Wed Mar  6 12:04:49 2019.
