 Gaussian 09, Revision D.01,
 Gaussian 09:  EM64L-G09RevD.01 24-Apr-2013

 ---------------------------------------------------------------
 # b3lyp/6-31g(d,p) Opt=(maxcycles=50) scrf=(solvent=chloroform)
 ---------------------------------------------------------------

 ------------
 AT3_1ginp007
 ------------
 Symbolic Z-matrix:
 Charge =  0 Multiplicity = 1

 SCF Done:  E(RB3LYP) =  -836.494630620     A.U. after   12 cycles
 SCF Done:  E(RB3LYP) =  -836.498621308     A.U. after   10 cycles
 SCF Done:  E(RB3LYP) =  -836.495078120     A.U. after   11 cycles
 SCF Done:  E(RB3LYP) =  -836.499135489     A.U. after    9 cycles
 SCF Done:  E(RB3LYP) =  -836.499493371     A.U. after    9 cycles
 SCF Done:  E(RB3LYP) =  -836.499529846     A.U. after    9 cycles
 SCF Done:  E(RB3LYP) =  -836.499428651     A.U. after    9 cycles
 SCF Done:  E(RB3LYP) =  -836.499595481     A.U. after    9 cycles
 SCF Done:  E(RB3LYP) =  -836.499611792     A.U. after    9 cycles
 SCF Done:  E(RB3LYP) =  -836.499635167     A.U. after    9 cycles
 SCF Done:  E(RB3LYP) =  -836.499789464     A.U. after    9 cycles
 SCF Done:  E(RB3LYP) =  -836.499239424     A.U. after   10 cycles
 SCF Done:  E(RB3LYP) =  -836.499791642     A.U. after    6 cycles
 SCF Done:  E(RB3LYP) =  -836.499763103     A.U. after   10 cycles
 SCF Done:  E(RB3LYP) =  -836.499814267     A.U. after   10 cycles
 SCF Done:  E(RB3LYP) =  -836.499822964     A.U. after    8 cycles
 SCF Done:  E(RB3LYP) =  -836.499827659     A.U. after    8 cycles
 SCF Done:  E(RB3LYP) =  -836.499827963     A.U. after    8 cycles
 SCF Done:  E(RB3LYP) =  -836.499828950     A.U. after    7 cycles
 SCF Done:  E(RB3LYP) =  -836.499828943     A.U. after    6 cycles
 Optimization completed.
    -- Stationary point found.

                         Standard orientation:
 ---------------------------------------------------------------------
 Center     Atomic      Atomic             Coordinates (Angstroms)
 Number     Number       Type             X           Y           Z
 ---------------------------------------------------------------------
      1          6           0        1.587047    3.067182    0.054735
      2          6           0        2.452107    1.912841   -0.465704
      3          6           0        2.119397    0.523082    0.114218
      4          6           0        3.133337   -0.561100   -0.350329
      5          6           0        2.663684   -1.988615   -0.002862
      6          8           0        1.558322   -2.425755   -0.772751
      7          7           0        0.718817    0.121932   -0.211321
      8          6           0       -0.247627    0.291688    0.892318
      9          6           0       -4.285222   -0.414534   -0.516147
     10          6           0       -3.477628   -1.496145   -0.159979
     11          6           0       -2.189150   -1.237958    0.289651
     12          6           0       -1.657345    0.048149    0.413409
     13          6           0       -2.508325    1.087670    0.033259
     14          6           0       -3.806299    0.892724   -0.422767
     15          1           0       -5.294909   -0.592313   -0.870990
     16          1           0       -3.826719   -2.519944   -0.226532
     17          1           0       -4.412979    1.748214   -0.695810
     18          9           0       -1.400296   -2.280050    0.633961
     19          9           0       -2.038947    2.357451    0.117083
     20          1           0        0.525616    2.930104   -0.172996
     21          1           0        1.684056    3.176958    1.140756
     22          1           0        1.898059    4.012596   -0.400986
     23          1           0        2.366625    1.852470   -1.560525
     24          1           0        3.502164    2.143895   -0.260463
     25          1           0        3.203731   -0.514910   -1.447071
     26          1           0        2.450834   -2.041326    1.081631
     27          1           0        3.485503   -2.689764   -0.192805
     28          1           0        0.923533   -1.681245   -0.684528
     29          1           0       -0.001137   -0.440275    1.666970
     30          1           0       -0.195463    1.286517    1.351409
     31          1           0        2.184377    0.576255    1.210943
     32          6           0        4.530265   -0.327129    0.247806
     33          1           0        4.501996   -0.381554    1.343153
     34          1           0        5.230280   -1.092583   -0.102584
     35          1           0        4.948263    0.644936   -0.024867
     36          1           0        0.395625    0.650758   -1.018501
 ---------------------------------------------------------------------

 The electronic state is 1-A.
 Alpha  occ. eigenvalues --  -24.71923 -24.71551 -19.10865 -14.33431 -10.28528
 Alpha  occ. eigenvalues --  -10.28400 -10.22557 -10.21673 -10.21295 -10.21294
 Alpha  occ. eigenvalues --  -10.21119 -10.20275 -10.20202 -10.18382 -10.18209
 Alpha  occ. eigenvalues --  -10.17561 -10.17364  -1.22821  -1.22595  -0.98723
 Alpha  occ. eigenvalues --   -0.91507  -0.87351  -0.80353  -0.77311  -0.75764
 Alpha  occ. eigenvalues --   -0.75547  -0.69484  -0.65829  -0.65362  -0.63059
 Alpha  occ. eigenvalues --   -0.61474  -0.59688  -0.56862  -0.55775  -0.53130
 Alpha  occ. eigenvalues --   -0.50023  -0.49304  -0.49046  -0.48174  -0.46728
 Alpha  occ. eigenvalues --   -0.46543  -0.46157  -0.44978  -0.43962  -0.42720
 Alpha  occ. eigenvalues --   -0.42321  -0.41552  -0.40889  -0.40226  -0.39253
 Alpha  occ. eigenvalues --   -0.38084  -0.37506  -0.37430  -0.37338  -0.35899
 Alpha  occ. eigenvalues --   -0.35688  -0.34770  -0.33626  -0.33167  -0.31855
 Alpha  occ. eigenvalues --   -0.31163  -0.26001  -0.25188  -0.24216  -0.22970
 Alpha virt. eigenvalues --   -0.02027  -0.00467   0.06847   0.08803   0.09708
 Alpha virt. eigenvalues --    0.10482   0.11240   0.12918   0.13452   0.14221
 Alpha virt. eigenvalues --    0.14523   0.14939   0.15496   0.15781   0.16887

 Mulliken charges:
               1
     1  C   -0.333645
     2  C   -0.193561
     3  C    0.096386
     4  C   -0.082666
     5  C    0.078136
     6  O   -0.602825
     7  N   -0.565318
     8  C   -0.067917
     9  C   -0.099063
    10  C   -0.137645
    11  C    0.332384
    12  C   -0.051601
    13  C    0.321205
    14  C   -0.137217
    15  H    0.119855
    16  H    0.120431
    17  H    0.118933
    18  F   -0.292700
    19  F   -0.297269
    20  H    0.107847
    21  H    0.107808
    22  H    0.106994
    23  H    0.099488
    24  H    0.105594
    25  H    0.087341
    26  H    0.063453
    27  H    0.086329
    28  H    0.327644
    29  H    0.128661
    30  H    0.111760
    31  H    0.093280
    32  C   -0.331096
    33  H    0.105350
    34  H    0.107490
    35  H    0.107417
    36  H    0.258735
 Sum of Mulliken charges =   0.00000

 Dipole moment (field-independent basis, Debye):
    X=             -1.6965    Y=              3.5199    Z=              0.6001  Tot=              3.9533
 Quadrupole moment (field-independent basis, Debye-Ang):
   XX=            -84.3857   YY=           -111.0164   ZZ=           -101.0528
   XY=              7.0519   XZ=              5.2542   YZ=             -3.9163

 Normal termination of Gaussian 09 at Wed Mar  6 12:42:44 2019.
