 Gaussian 09, Revision D.01,
 Gaussian 09:  EM64L-G09RevD.01 24-Apr-2013

 ---------------------------------------------------------------
 # b3lyp/6-31g(d,p) Opt=(maxcycles=50) scrf=(solvent=chloroform)
 ---------------------------------------------------------------

 ------------
 AT3_1ginp012
 ------------
 Symbolic Z-matrix:
 Charge =  0 Multiplicity = 1

 SCF Done:  E(RB3LYP) =  -836.486817368     A.U. after   12 cycles
 SCF Done:  E(RB3LYP) =  -836.490399077     A.U. after    9 cycles
 SCF Done:  E(RB3LYP) =  -836.490735395     A.U. after    9 cycles
 SCF Done:  E(RB3LYP) =  -836.490808230     A.U. after    9 cycles
 SCF Done:  E(RB3LYP) =  -836.490881640     A.U. after    9 cycles
 SCF Done:  E(RB3LYP) =  -836.490941338     A.U. after    9 cycles
 SCF Done:  E(RB3LYP) =  -836.490921166     A.U. after   10 cycles
 SCF Done:  E(RB3LYP) =  -836.491008839     A.U. after   10 cycles
 SCF Done:  E(RB3LYP) =  -836.491053651     A.U. after    9 cycles
 SCF Done:  E(RB3LYP) =  -836.491065626     A.U. after    9 cycles
 SCF Done:  E(RB3LYP) =  -836.491068831     A.U. after    9 cycles
 SCF Done:  E(RB3LYP) =  -836.491070198     A.U. after    8 cycles
 SCF Done:  E(RB3LYP) =  -836.491070523     A.U. after    7 cycles
 SCF Done:  E(RB3LYP) =  -836.491070644     A.U. after    6 cycles
 SCF Done:  E(RB3LYP) =  -836.491070667     A.U. after    6 cycles
 Optimization completed.
    -- Stationary point found.

                         Standard orientation:
 ---------------------------------------------------------------------
 Center     Atomic      Atomic             Coordinates (Angstroms)
 Number     Number       Type             X           Y           Z
 ---------------------------------------------------------------------
      1          6           0       -3.450706    2.560450   -0.700058
      2          6           0       -2.218259    1.950696   -0.023121
      3          6           0       -1.848314    0.539457   -0.527418
      4          6           0       -2.882807   -0.548888   -0.139760
      5          6           0       -2.857145   -0.890796    1.354742
      6          8           0       -4.002814   -1.698249    1.637014
      7          7           0       -0.511537    0.157745   -0.030838
      8          6           0        0.596133    0.769920   -0.779487
      9          6           0        4.429849   -0.758041    0.564883
     10          6           0        4.083197    0.564854    0.839110
     11          6           0        2.848539    1.033077    0.402570
     12          6           0        1.933539    0.251055   -0.304452
     13          6           0        2.337838   -1.063606   -0.545427
     14          6           0        3.553594   -1.591030   -0.133804
     15          1           0        5.387550   -1.143611    0.898231
     16          1           0        4.745621    1.230860    1.379758
     17          1           0        3.795784   -2.623253   -0.358368
     18          9           0        2.520908    2.318761    0.668736
     19          9           0        1.473937   -1.867986   -1.218340
     20          1           0       -3.612659    3.586715   -0.355613
     21          1           0       -3.329596    2.591923   -1.789041
     22          1           0       -4.364454    1.997605   -0.484932
     23          1           0       -1.364569    2.614839   -0.199845
     24          1           0       -2.355614    1.927388    1.063862
     25          1           0       -3.876923   -0.131046   -0.340123
     26          1           0       -2.875314    0.027698    1.957651
     27          1           0       -1.930262   -1.425485    1.607006
     28          1           0       -3.942405   -1.977429    2.559664
     29          1           0        0.510850    0.590619   -1.866295
     30          1           0        0.575079    1.851261   -0.634359
     31          1           0       -1.847963    0.586096   -1.634898
     32          6           0       -2.744732   -1.816978   -0.999023
     33          1           0       -1.764435   -2.295243   -0.880058
     34          1           0       -3.501117   -2.551024   -0.712095
     35          1           0       -2.873223   -1.585581   -2.061427
     36          1           0       -0.411048   -0.848534   -0.135455
 ---------------------------------------------------------------------

 The electronic state is 1-A.
 Alpha  occ. eigenvalues --  -24.71767 -24.71352 -19.13932 -14.31718 -10.28198
 Alpha  occ. eigenvalues --  -10.28188 -10.22240 -10.21814 -10.21050 -10.20936
 Alpha  occ. eigenvalues --  -10.20907 -10.20122 -10.20052 -10.18481 -10.17552
 Alpha  occ. eigenvalues --  -10.17170 -10.16961  -1.22633  -1.22393  -1.00920
 Alpha  occ. eigenvalues --   -0.90876  -0.87138  -0.80117  -0.76852  -0.75570
 Alpha  occ. eigenvalues --   -0.75437  -0.68732  -0.67116  -0.64907  -0.62828
 Alpha  occ. eigenvalues --   -0.61316  -0.59497  -0.55741  -0.54384  -0.52617
 Alpha  occ. eigenvalues --   -0.51345  -0.49362  -0.48901  -0.48006  -0.46880
 Alpha  occ. eigenvalues --   -0.46589  -0.45922  -0.45192  -0.43928  -0.43678
 Alpha  occ. eigenvalues --   -0.42234  -0.41864  -0.40513  -0.40122  -0.39256
 Alpha  occ. eigenvalues --   -0.37996  -0.37202  -0.36695  -0.36121  -0.35593
 Alpha  occ. eigenvalues --   -0.35402  -0.35043  -0.34187  -0.31731  -0.31353
 Alpha  occ. eigenvalues --   -0.30713  -0.26252  -0.25657  -0.25013  -0.22568
 Alpha virt. eigenvalues --   -0.01635  -0.00291   0.07132   0.08478   0.09036
 Alpha virt. eigenvalues --    0.09919   0.11395   0.12114   0.13655   0.14198
 Alpha virt. eigenvalues --    0.14632   0.14754   0.15939   0.16022   0.16663

 Mulliken charges:
               1
     1  C   -0.329683
     2  C   -0.170382
     3  C    0.099929
     4  C   -0.100881
     5  C    0.071469
     6  O   -0.570374
     7  N   -0.544996
     8  C   -0.079635
     9  C   -0.100351
    10  C   -0.139705
    11  C    0.317282
    12  C   -0.025973
    13  C    0.320867
    14  C   -0.137920
    15  H    0.117673
    16  H    0.117016
    17  H    0.117609
    18  F   -0.298831
    19  F   -0.302916
    20  H    0.104379
    21  H    0.104909
    22  H    0.110329
    23  H    0.095839
    24  H    0.098977
    25  H    0.102686
    26  H    0.088015
    27  H    0.085779
    28  H    0.320115
    29  H    0.099931
    30  H    0.121960
    31  H    0.065197
    32  C   -0.325562
    33  H    0.095776
    34  H    0.119302
    35  H    0.103029
    36  H    0.249140
 Sum of Mulliken charges =   0.00000

 Dipole moment (field-independent basis, Debye):
    X=              2.2438    Y=             -0.5442    Z=              0.6631  Tot=              2.4022
 Quadrupole moment (field-independent basis, Debye-Ang):
   XX=            -95.7585   YY=           -100.7616   ZZ=            -96.2841
   XY=             -6.4134   XZ=              0.0785   YZ=             -4.1504

 Normal termination of Gaussian 09 at Wed Mar  6 12:16:51 2019.
