 Gaussian 09, Revision D.01,
 Gaussian 09:  EM64L-G09RevD.01 24-Apr-2013

 ---------------------------------------------------------------
 # b3lyp/6-31g(d,p) Opt=(maxcycles=50) scrf=(solvent=chloroform)
 ---------------------------------------------------------------

 ------------
 AT3_2ginp007
 ------------
 Symbolic Z-matrix:
 Charge =  0 Multiplicity = 1

 SCF Done:  E(RB3LYP) =  -836.488517680     A.U. after   12 cycles
 SCF Done:  E(RB3LYP) =  -836.492392900     A.U. after    9 cycles
 SCF Done:  E(RB3LYP) =  -836.492935862     A.U. after    9 cycles
 SCF Done:  E(RB3LYP) =  -836.493115831     A.U. after   10 cycles
 SCF Done:  E(RB3LYP) =  -836.493165783     A.U. after    9 cycles
 SCF Done:  E(RB3LYP) =  -836.493198694     A.U. after    9 cycles
 SCF Done:  E(RB3LYP) =  -836.493213268     A.U. after    9 cycles
 SCF Done:  E(RB3LYP) =  -836.493233823     A.U. after    8 cycles
 SCF Done:  E(RB3LYP) =  -836.493253863     A.U. after    9 cycles
 SCF Done:  E(RB3LYP) =  -836.493262880     A.U. after   10 cycles
 SCF Done:  E(RB3LYP) =  -836.493275520     A.U. after    9 cycles
 SCF Done:  E(RB3LYP) =  -836.493235304     A.U. after   10 cycles
 SCF Done:  E(RB3LYP) =  -836.493281664     A.U. after   10 cycles
 SCF Done:  E(RB3LYP) =  -836.493284883     A.U. after    9 cycles
 SCF Done:  E(RB3LYP) =  -836.493284984     A.U. after    7 cycles
 SCF Done:  E(RB3LYP) =  -836.493285139     A.U. after    7 cycles
 SCF Done:  E(RB3LYP) =  -836.493285268     A.U. after    7 cycles
 SCF Done:  E(RB3LYP) =  -836.493285290     A.U. after    6 cycles
 SCF Done:  E(RB3LYP) =  -836.493285294     A.U. after    6 cycles
 Optimization completed.
    -- Stationary point found.

                         Standard orientation:
 ---------------------------------------------------------------------
 Center     Atomic      Atomic             Coordinates (Angstroms)
 Number     Number       Type             X           Y           Z
 ---------------------------------------------------------------------
      1          6           0       -2.050665    3.193434   -0.151070
      2          6           0       -2.556276    1.784059   -0.485987
      3          6           0       -1.894110    0.672561    0.350437
      4          6           0       -2.670064   -0.672792    0.329983
      5          6           0       -2.948315   -1.166889   -1.097524
      6          8           0       -3.465883   -2.499622   -1.128552
      7          7           0       -0.512170    0.461156   -0.123890
      8          6           0        0.420195    0.052369    0.934666
      9          6           0        4.461299   -0.332367   -0.599790
     10          6           0        3.765685   -1.475012   -0.204996
     11          6           0        2.470510   -1.330487    0.280562
     12          6           0        1.826081   -0.098521    0.402201
     13          6           0        2.573064    1.006067   -0.011936
     14          6           0        3.866759    0.927843   -0.507615
     15          1           0        5.472047   -0.423322   -0.983232
     16          1           0        4.204910   -2.463875   -0.267620
     17          1           0        4.382792    1.831626   -0.809976
     18          9           0        1.802630   -2.443248    0.665099
     19          9           0        1.980969    2.226471    0.073511
     20          1           0       -2.530447    3.942283   -0.788866
     21          1           0       -2.270744    3.450392    0.890918
     22          1           0       -0.968377    3.294439   -0.290897
     23          1           0       -3.640049    1.754808   -0.331758
     24          1           0       -2.389338    1.573152   -1.550072
     25          1           0       -2.000694   -1.417673    0.787804
     26          1           0       -2.031262   -1.085296   -1.695594
     27          1           0       -3.717186   -0.549732   -1.574820
     28          1           0       -2.776918   -3.080642   -0.777804
     29          1           0        0.434196    0.767113    1.776810
     30          1           0        0.097726   -0.908062    1.342284
     31          1           0       -1.887052    1.017381    1.402461
     32          6           0       -3.950309   -0.632268    1.173558
     33          1           0       -4.656965    0.119251    0.803795
     34          1           0       -4.453283   -1.601926    1.135664
     35          1           0       -3.730743   -0.398228    2.220786
     36          1           0       -0.161864    1.330204   -0.516657
 ---------------------------------------------------------------------

 The electronic state is 1-A.
 Alpha  occ. eigenvalues --  -24.71833 -24.71436 -19.13804 -14.31774 -10.28256
 Alpha  occ. eigenvalues --  -10.28238 -10.21940 -10.21740 -10.21102 -10.21030
 Alpha  occ. eigenvalues --  -10.20946 -10.20168 -10.20102 -10.18191 -10.18135
 Alpha  occ. eigenvalues --  -10.17593 -10.16801  -1.22680  -1.22468  -1.00710
 Alpha  occ. eigenvalues --   -0.90952  -0.87194  -0.80118  -0.77013  -0.75626
 Alpha  occ. eigenvalues --   -0.75459  -0.68828  -0.66878  -0.64888  -0.62915
 Alpha  occ. eigenvalues --   -0.61317  -0.60489  -0.55792  -0.55096  -0.52746
 Alpha  occ. eigenvalues --   -0.49951  -0.48967  -0.48849  -0.48045  -0.47231
 Alpha  occ. eigenvalues --   -0.46470  -0.46027  -0.45336  -0.44176  -0.43612
 Alpha  occ. eigenvalues --   -0.42848  -0.41362  -0.40575  -0.39787  -0.39530
 Alpha  occ. eigenvalues --   -0.38282  -0.37282  -0.36977  -0.36090  -0.35772
 Alpha  occ. eigenvalues --   -0.35576  -0.34826  -0.33971  -0.33310  -0.31108
 Alpha  occ. eigenvalues --   -0.30534  -0.26255  -0.25698  -0.25068  -0.22354
 Alpha virt. eigenvalues --   -0.01673  -0.00344   0.07016   0.08411   0.09034
 Alpha virt. eigenvalues --    0.10630   0.10921   0.12853   0.13752   0.13804
 Alpha virt. eigenvalues --    0.14364   0.14804   0.15839   0.16134   0.16675

 Mulliken charges:
               1
     1  C   -0.330299
     2  C   -0.209425
     3  C    0.091949
     4  C   -0.068584
     5  C    0.062777
     6  O   -0.573099
     7  N   -0.533131
     8  C   -0.083694
     9  C   -0.100258
    10  C   -0.139393
    11  C    0.315235
    12  C   -0.022234
    13  C    0.320829
    14  C   -0.137571
    15  H    0.118079
    16  H    0.117185
    17  H    0.117950
    18  F   -0.299794
    19  F   -0.302894
    20  H    0.108475
    21  H    0.110112
    22  H    0.104379
    23  H    0.106544
    24  H    0.107657
    25  H    0.080027
    26  H    0.097099
    27  H    0.098842
    28  H    0.314972
    29  H    0.101444
    30  H    0.120563
    31  H    0.067607
    32  C   -0.322537
    33  H    0.102135
    34  H    0.110984
    35  H    0.099183
    36  H    0.248886
 Sum of Mulliken charges =   0.00000

 Dipole moment (field-independent basis, Debye):
    X=              3.1159    Y=              1.4034    Z=              0.7834  Tot=              3.5060
 Quadrupole moment (field-independent basis, Debye-Ang):
   XX=            -97.4394   YY=           -100.7197   ZZ=           -102.9510
   XY=             -8.4677   XZ=             -7.5367   YZ=             -3.3200

 Normal termination of Gaussian 09 at Wed Mar  6 12:45:49 2019.
