 Gaussian 09, Revision D.01,
 Gaussian 09:  EM64L-G09RevD.01 24-Apr-2013

 ---------------------------------------------------------------
 # b3lyp/6-31g(d,p) Opt=(maxcycles=50) scrf=(solvent=chloroform)
 ---------------------------------------------------------------

 ------------
 AT3_1ginp011
 ------------
 Symbolic Z-matrix:
 Charge =  0 Multiplicity = 1

 SCF Done:  E(RB3LYP) =  -836.495918076     A.U. after   12 cycles
 SCF Done:  E(RB3LYP) =  -836.498251658     A.U. after   10 cycles
 SCF Done:  E(RB3LYP) =  -836.495694984     A.U. after   11 cycles
 SCF Done:  E(RB3LYP) =  -836.499329655     A.U. after    9 cycles
 SCF Done:  E(RB3LYP) =  -836.499881399     A.U. after    9 cycles
 SCF Done:  E(RB3LYP) =  -836.499593726     A.U. after    9 cycles
 SCF Done:  E(RB3LYP) =  -836.499920286     A.U. after    6 cycles
 SCF Done:  E(RB3LYP) =  -836.499822806     A.U. after   10 cycles
 SCF Done:  E(RB3LYP) =  -836.499948660     A.U. after    9 cycles
 SCF Done:  E(RB3LYP) =  -836.499985991     A.U. after    8 cycles
 SCF Done:  E(RB3LYP) =  -836.499993813     A.U. after    8 cycles
 SCF Done:  E(RB3LYP) =  -836.499997304     A.U. after    9 cycles
 SCF Done:  E(RB3LYP) =  -836.500001693     A.U. after    8 cycles
 SCF Done:  E(RB3LYP) =  -836.500004654     A.U. after    8 cycles
 SCF Done:  E(RB3LYP) =  -836.500005493     A.U. after    8 cycles
 SCF Done:  E(RB3LYP) =  -836.500005690     A.U. after    6 cycles
 SCF Done:  E(RB3LYP) =  -836.500005727     A.U. after    6 cycles
 Optimization completed.
    -- Stationary point found.

                         Standard orientation:
 ---------------------------------------------------------------------
 Center     Atomic      Atomic             Coordinates (Angstroms)
 Number     Number       Type             X           Y           Z
 ---------------------------------------------------------------------
      1          6           0       -1.871031    3.044202    0.114014
      2          6           0       -2.504329    1.733949    0.598045
      3          6           0       -2.171477    0.515942   -0.291970
      4          6           0       -2.846322   -0.805974    0.164127
      5          6           0       -2.591012   -1.945960   -0.845109
      6          8           0       -1.231173   -2.321978   -0.972385
      7          7           0       -0.710047    0.305829   -0.505093
      8          6           0        0.121961    0.232567    0.712659
      9          6           0        4.306803   -0.234269   -0.327303
     10          6           0        3.673602    0.994688   -0.524714
     11          6           0        2.333792    1.101645   -0.180600
     12          6           0        1.578284    0.056003    0.352964
     13          6           0        2.262860   -1.149234    0.521688
     14          6           0        3.604888   -1.318593    0.199037
     15          1           0        5.353966   -0.346932   -0.587411
     16          1           0        4.194640    1.851990   -0.934519
     17          1           0        4.074335   -2.282077    0.359816
     18          9           0        1.703688    2.290123   -0.379184
     19          9           0        1.586997   -2.200592    1.034845
     20          1           0       -0.777431    3.011930    0.131814
     21          1           0       -2.179217    3.272813   -0.913049
     22          1           0       -2.184063    3.881397    0.745449
     23          1           0       -2.207052    1.533730    1.635754
     24          1           0       -3.591004    1.860791    0.616193
     25          1           0       -2.408485   -1.115845    1.123543
     26          1           0       -3.019993   -1.647970   -1.820710
     27          1           0       -3.141801   -2.837144   -0.520048
     28          1           0       -0.758402   -1.463792   -1.054281
     29          1           0        0.022641    1.123067    1.348457
     30          1           0       -0.200074   -0.627672    1.300786
     31          1           0       -2.562088    0.734760   -1.297136
     32          6           0       -4.362628   -0.647060    0.362729
     33          1           0       -4.843686   -0.253715   -0.541114
     34          1           0       -4.819828   -1.617040    0.584124
     35          1           0       -4.605715    0.023391    1.190195
     36          1           0       -0.355527    1.060132   -1.087488
 ---------------------------------------------------------------------

 The electronic state is 1-A.
 Alpha  occ. eigenvalues --  -24.72103 -24.71402 -19.11127 -14.33533 -10.28418
 Alpha  occ. eigenvalues --  -10.28359 -10.22390 -10.21737 -10.21470 -10.21296
 Alpha  occ. eigenvalues --  -10.21041 -10.20269 -10.20148 -10.18551 -10.18116
 Alpha  occ. eigenvalues --  -10.17551 -10.17484  -1.22892  -1.22493  -0.98929
 Alpha  occ. eigenvalues --   -0.91537  -0.87330  -0.80299  -0.77411  -0.75731
 Alpha  occ. eigenvalues --   -0.75562  -0.69631  -0.65998  -0.65559  -0.63038
 Alpha  occ. eigenvalues --   -0.61740  -0.59708  -0.56103  -0.55293  -0.52986
 Alpha  occ. eigenvalues --   -0.50982  -0.49174  -0.49035  -0.47954  -0.47854
 Alpha  occ. eigenvalues --   -0.46209  -0.46102  -0.44648  -0.44122  -0.43722
 Alpha  occ. eigenvalues --   -0.42015  -0.41197  -0.40826  -0.40339  -0.39301
 Alpha  occ. eigenvalues --   -0.38306  -0.37854  -0.37314  -0.36879  -0.35720
 Alpha  occ. eigenvalues --   -0.35591  -0.34882  -0.33778  -0.33368  -0.31738
 Alpha  occ. eigenvalues --   -0.31104  -0.25891  -0.25144  -0.24427  -0.23297
 Alpha virt. eigenvalues --   -0.01835  -0.00438   0.06597   0.09017   0.09688
 Alpha virt. eigenvalues --    0.10270   0.11808   0.13173   0.13532   0.14206
 Alpha virt. eigenvalues --    0.14498   0.15183   0.15765   0.16009   0.16346

 Mulliken charges:
               1
     1  C   -0.342282
     2  C   -0.187415
     3  C    0.081360
     4  C   -0.087182
     5  C    0.081369
     6  O   -0.600580
     7  N   -0.564216
     8  C   -0.083084
     9  C   -0.099622
    10  C   -0.136582
    11  C    0.321448
    12  C   -0.029575
    13  C    0.321585
    14  C   -0.138275
    15  H    0.119364
    16  H    0.119077
    17  H    0.119543
    18  F   -0.299875
    19  F   -0.294094
    20  H    0.108575
    21  H    0.106555
    22  H    0.108372
    23  H    0.099609
    24  H    0.105417
    25  H    0.094363
    26  H    0.064056
    27  H    0.087490
    28  H    0.327973
    29  H    0.116831
    30  H    0.131345
    31  H    0.093476
    32  C   -0.330423
    33  H    0.106159
    34  H    0.105732
    35  H    0.111537
    36  H    0.261969
 Sum of Mulliken charges =   0.00000

 Dipole moment (field-independent basis, Debye):
    X=              0.9964    Y=              3.5015    Z=              0.6355  Tot=              3.6956
 Quadrupole moment (field-independent basis, Debye-Ang):
   XX=            -82.1893   YY=           -109.8489   ZZ=           -101.6677
   XY=             -3.9039   XZ=             -3.2437   YZ=             -3.8411

 Normal termination of Gaussian 09 at Wed Mar  6 13:21:10 2019.
