 Gaussian 09, Revision D.01,
 Gaussian 09:  EM64L-G09RevD.01 24-Apr-2013

 ---------------------------------------------------------------
 # b3lyp/6-31g(d,p) Opt=(maxcycles=50) scrf=(solvent=chloroform)
 ---------------------------------------------------------------

 ------------
 AT3_1ginp018
 ------------
 Symbolic Z-matrix:
 Charge =  0 Multiplicity = 1

 SCF Done:  E(RB3LYP) =  -836.490150710     A.U. after   12 cycles
 SCF Done:  E(RB3LYP) =  -836.494652320     A.U. after   10 cycles
 SCF Done:  E(RB3LYP) =  -836.496062054     A.U. after   10 cycles
 SCF Done:  E(RB3LYP) =  -836.496817865     A.U. after   10 cycles
 SCF Done:  E(RB3LYP) =  -836.497492522     A.U. after   10 cycles
 SCF Done:  E(RB3LYP) =  -836.497769841     A.U. after   10 cycles
 SCF Done:  E(RB3LYP) =  -836.497941695     A.U. after    9 cycles
 SCF Done:  E(RB3LYP) =  -836.498014182     A.U. after    9 cycles
 SCF Done:  E(RB3LYP) =  -836.498043899     A.U. after    9 cycles
 SCF Done:  E(RB3LYP) =  -836.498062259     A.U. after    8 cycles
 SCF Done:  E(RB3LYP) =  -836.498072934     A.U. after    9 cycles
 SCF Done:  E(RB3LYP) =  -836.498078838     A.U. after    8 cycles
 SCF Done:  E(RB3LYP) =  -836.498079724     A.U. after    8 cycles
 SCF Done:  E(RB3LYP) =  -836.498079703     A.U. after    7 cycles
 SCF Done:  E(RB3LYP) =  -836.498079575     A.U. after    7 cycles
 SCF Done:  E(RB3LYP) =  -836.498079596     A.U. after    6 cycles
 Optimization completed.
    -- Stationary point found.

                         Standard orientation:
 ---------------------------------------------------------------------
 Center     Atomic      Atomic             Coordinates (Angstroms)
 Number     Number       Type             X           Y           Z
 ---------------------------------------------------------------------
      1          6           0        2.132721    2.800805   -0.487157
      2          6           0        2.427006    1.858701    0.686926
      3          6           0        2.072973    0.369951    0.440405
      4          6           0        3.091828   -0.335965   -0.503609
      5          6           0        2.476722   -1.547745   -1.234034
      6          8           0        1.800803   -2.441258   -0.359491
      7          7           0        0.686663    0.141555   -0.018799
      8          6           0       -0.353521    0.568781    0.928662
      9          6           0       -4.254096   -0.597707   -0.559036
     10          6           0       -3.394665   -1.563845   -0.031160
     11          6           0       -2.155042   -1.154428    0.440612
     12          6           0       -1.719344    0.172834    0.424027
     13          6           0       -2.616233    1.091005   -0.123928
     14          6           0       -3.871277    0.742629   -0.610524
     15          1           0       -5.228247   -0.893070   -0.934267
     16          1           0       -3.668274   -2.611358    0.017788
     17          1           0       -4.519048    1.509639   -1.018776
     18          9           0       -1.317152   -2.085382    0.956094
     19          9           0       -2.240347    2.391428   -0.182921
     20          1           0        1.061597    2.848296   -0.712761
     21          1           0        2.457299    3.818882   -0.251309
     22          1           0        2.652670    2.495823   -1.401555
     23          1           0        3.489806    1.922190    0.948376
     24          1           0        1.884891    2.213896    1.571643
     25          1           0        3.403390    0.372866   -1.284150
     26          1           0        3.276842   -2.118777   -1.719373
     27          1           0        1.802861   -1.200905   -2.031493
     28          1           0        1.032251   -1.918594   -0.061625
     29          1           0       -0.158328    0.059380    1.878654
     30          1           0       -0.350556    1.647098    1.131907
     31          1           0        2.135181   -0.143549    1.409338
     32          6           0        4.336734   -0.766201    0.287745
     33          1           0        4.080440   -1.589971    0.962298
     34          1           0        5.126479   -1.114809   -0.386052
     35          1           0        4.750685    0.049658    0.888808
     36          1           0        0.531653    0.605178   -0.912070
 ---------------------------------------------------------------------

 The electronic state is 1-A.
 Alpha  occ. eigenvalues --  -24.71659 -24.71599 -19.12058 -14.32997 -10.28354
 Alpha  occ. eigenvalues --  -10.28278 -10.22345 -10.21541 -10.21300 -10.21124
 Alpha  occ. eigenvalues --  -10.21002 -10.20158 -10.20132 -10.18281 -10.18067
 Alpha  occ. eigenvalues --  -10.17604 -10.16894  -1.22612  -1.22557  -0.99551
 Alpha  occ. eigenvalues --   -0.91441  -0.87234  -0.80101  -0.77065  -0.75656
 Alpha  occ. eigenvalues --   -0.75263  -0.69224  -0.66561  -0.65533  -0.62941
 Alpha  occ. eigenvalues --   -0.61577  -0.59344  -0.55994  -0.55462  -0.52964
 Alpha  occ. eigenvalues --   -0.49961  -0.49017  -0.48363  -0.48259  -0.47064
 Alpha  occ. eigenvalues --   -0.46394  -0.46054  -0.45740  -0.43910  -0.43743
 Alpha  occ. eigenvalues --   -0.42161  -0.41405  -0.41066  -0.40166  -0.38928
 Alpha  occ. eigenvalues --   -0.38454  -0.37400  -0.36740  -0.36229  -0.35851
 Alpha  occ. eigenvalues --   -0.35521  -0.34908  -0.34026  -0.33281  -0.31228
 Alpha  occ. eigenvalues --   -0.30636  -0.25813  -0.25123  -0.25017  -0.23131
 Alpha virt. eigenvalues --   -0.01847  -0.00347   0.06375   0.08354   0.10116
 Alpha virt. eigenvalues --    0.10507   0.11835   0.13551   0.13803   0.13990
 Alpha virt. eigenvalues --    0.14435   0.14828   0.15702   0.16295   0.16859

 Mulliken charges:
               1
     1  C   -0.334302
     2  C   -0.186187
     3  C    0.088441
     4  C   -0.085887
     5  C    0.065553
     6  O   -0.586831
     7  N   -0.557446
     8  C   -0.073201
     9  C   -0.099868
    10  C   -0.136757
    11  C    0.330383
    12  C   -0.039397
    13  C    0.317262
    14  C   -0.139363
    15  H    0.118660
    16  H    0.119420
    17  H    0.117409
    18  F   -0.294877
    19  F   -0.300428
    20  H    0.105753
    21  H    0.110472
    22  H    0.110100
    23  H    0.100850
    24  H    0.098419
    25  H    0.084175
    26  H    0.090418
    27  H    0.074153
    28  H    0.323104
    29  H    0.125615
    30  H    0.108951
    31  H    0.099209
    32  C   -0.324927
    33  H    0.115593
    34  H    0.101068
    35  H    0.100523
    36  H    0.253940
 Sum of Mulliken charges =   0.00000

 Dipole moment (field-independent basis, Debye):
    X=             -1.9702    Y=              3.0338    Z=             -0.5217  Tot=              3.6548
 Quadrupole moment (field-independent basis, Debye-Ang):
   XX=            -88.2459   YY=           -110.6192   ZZ=            -98.9684
   XY=              9.4379   XZ=              2.2444   YZ=              0.1895

 Normal termination of Gaussian 09 at Wed Mar  6 12:27:48 2019.
