 Gaussian 09, Revision D.01,
 Gaussian 09:  EM64L-G09RevD.01 24-Apr-2013

 ---------------------------------------------------------------
 # b3lyp/6-31g(d,p) Opt=(maxcycles=50) scrf=(solvent=chloroform)
 ---------------------------------------------------------------

 ------------
 AT3_1ginp016
 ------------
 Symbolic Z-matrix:
 Charge =  0 Multiplicity = 1

 SCF Done:  E(RB3LYP) =  -836.488599792     A.U. after   12 cycles
 SCF Done:  E(RB3LYP) =  -836.492509383     A.U. after   10 cycles
 SCF Done:  E(RB3LYP) =  -836.492966017     A.U. after   10 cycles
 SCF Done:  E(RB3LYP) =  -836.493070219     A.U. after    9 cycles
 SCF Done:  E(RB3LYP) =  -836.493168796     A.U. after    9 cycles
 SCF Done:  E(RB3LYP) =  -836.493244309     A.U. after    9 cycles
 SCF Done:  E(RB3LYP) =  -836.493280978     A.U. after   10 cycles
 SCF Done:  E(RB3LYP) =  -836.493297580     A.U. after   10 cycles
 SCF Done:  E(RB3LYP) =  -836.493353713     A.U. after    9 cycles
 SCF Done:  E(RB3LYP) =  -836.493366398     A.U. after    8 cycles
 SCF Done:  E(RB3LYP) =  -836.493398820     A.U. after    9 cycles
 SCF Done:  E(RB3LYP) =  -836.493399158     A.U. after    9 cycles
 SCF Done:  E(RB3LYP) =  -836.493399264     A.U. after    7 cycles
 SCF Done:  E(RB3LYP) =  -836.493399909     A.U. after    7 cycles
 Optimization completed.
    -- Stationary point found.

                         Standard orientation:
 ---------------------------------------------------------------------
 Center     Atomic      Atomic             Coordinates (Angstroms)
 Number     Number       Type             X           Y           Z
 ---------------------------------------------------------------------
      1          6           0       -2.185501    2.958215    0.005769
      2          6           0       -2.554659    1.627862    0.675738
      3          6           0       -1.914369    0.400350    0.003331
      4          6           0       -2.584324   -0.945687    0.388585
      5          6           0       -3.949397   -1.139275   -0.288632
      6          8           0       -3.902720   -1.068420   -1.713731
      7          7           0       -0.476836    0.351433    0.345019
      8          6           0        0.363560   -0.203568   -0.723785
      9          6           0        4.565026   -0.064637    0.356644
     10          6           0        3.919937   -1.298103    0.268579
     11          6           0        2.572624   -1.321176   -0.075683
     12          6           0        1.826580   -0.173214   -0.346585
     13          6           0        2.527946    1.029445   -0.239722
     14          6           0        3.869695    1.119435    0.102585
     15          1           0        5.615192   -0.024645    0.625938
     16          1           0        4.437364   -2.230748    0.461344
     17          1           0        4.344810    2.091432    0.166058
     18          9           0        1.954707   -2.522210   -0.162633
     19          9           0        1.839818    2.176360   -0.481506
     20          1           0       -2.539216    2.985090   -1.030578
     21          1           0       -2.636916    3.802502    0.536249
     22          1           0       -1.103069    3.129063   -0.014086
     23          1           0       -2.258870    1.647874    1.732213
     24          1           0       -3.644924    1.521661    0.663218
     25          1           0       -1.929588   -1.739997   -0.002401
     26          1           0       -4.649292   -0.355057    0.020630
     27          1           0       -4.380266   -2.097574    0.040180
     28          1           0       -3.331826   -1.786891   -2.018933
     29          1           0        0.072459   -1.240968   -0.903341
     30          1           0        0.232953    0.333911   -1.679936
     31          1           0       -2.046252    0.514276   -1.086451
     32          6           0       -2.698286   -1.157299    1.904260
     33          1           0       -3.433783   -0.481808    2.355185
     34          1           0       -3.009209   -2.181973    2.134150
     35          1           0       -1.732392   -0.977490    2.382740
     36          1           0       -0.151270    1.297228    0.523287
 ---------------------------------------------------------------------

 The electronic state is 1-A.
 Alpha  occ. eigenvalues --  -24.71735 -24.71335 -19.14277 -14.31475 -10.28161
 Alpha  occ. eigenvalues --  -10.28144 -10.22392 -10.21761 -10.20996 -10.20868
 Alpha  occ. eigenvalues --  -10.20409 -10.20089 -10.20023 -10.18171 -10.17886
 Alpha  occ. eigenvalues --  -10.17363 -10.16801  -1.22581  -1.22370  -1.01231
 Alpha  occ. eigenvalues --   -0.90633  -0.87079  -0.79967  -0.77018  -0.75539
 Alpha  occ. eigenvalues --   -0.75366  -0.68640  -0.66796  -0.64943  -0.62817
 Alpha  occ. eigenvalues --   -0.61282  -0.60436  -0.55691  -0.54810  -0.52619
 Alpha  occ. eigenvalues --   -0.49835  -0.49418  -0.48870  -0.48122  -0.47144
 Alpha  occ. eigenvalues --   -0.46393  -0.45885  -0.45711  -0.43845  -0.43092
 Alpha  occ. eigenvalues --   -0.42030  -0.41327  -0.40440  -0.39969  -0.39059
 Alpha  occ. eigenvalues --   -0.38605  -0.37574  -0.37193  -0.36273  -0.35732
 Alpha  occ. eigenvalues --   -0.35426  -0.35033  -0.33856  -0.32192  -0.31268
 Alpha  occ. eigenvalues --   -0.30596  -0.26641  -0.25602  -0.24982  -0.22095
 Alpha virt. eigenvalues --   -0.01575  -0.00259   0.07035   0.07890   0.09152
 Alpha virt. eigenvalues --    0.10512   0.11050   0.12635   0.13869   0.14385
 Alpha virt. eigenvalues --    0.14601   0.15569   0.15864   0.16330   0.16510

 Mulliken charges:
               1
     1  C   -0.329728
     2  C   -0.208233
     3  C    0.103826
     4  C   -0.076272
     5  C    0.060474
     6  O   -0.563902
     7  N   -0.536358
     8  C   -0.082307
     9  C   -0.100520
    10  C   -0.139637
    11  C    0.315324
    12  C   -0.022299
    13  C    0.320575
    14  C   -0.137904
    15  H    0.117479
    16  H    0.116582
    17  H    0.117436
    18  F   -0.299678
    19  F   -0.302842
    20  H    0.111670
    21  H    0.106019
    22  H    0.102775
    23  H    0.104315
    24  H    0.102724
    25  H    0.082200
    26  H    0.103689
    27  H    0.085573
    28  H    0.316116
    29  H    0.117166
    30  H    0.100816
    31  H    0.076840
    32  C   -0.327533
    33  H    0.102454
    34  H    0.098466
    35  H    0.117107
    36  H    0.247586
 Sum of Mulliken charges =   0.00000

 Dipole moment (field-independent basis, Debye):
    X=              2.1947    Y=             -0.2760    Z=              0.4737  Tot=              2.2622
 Quadrupole moment (field-independent basis, Debye-Ang):
   XX=            -92.8015   YY=            -97.5352   ZZ=           -104.2214
   XY=              2.2321   XZ=             -3.0181   YZ=              2.8943

 Normal termination of Gaussian 09 at Wed Mar  6 11:23:06 2019.
