 Gaussian 09, Revision D.01,
 Gaussian 09:  EM64L-G09RevD.01 24-Apr-2013

 ---------------------------------------------------------------
 # b3lyp/6-31g(d,p) Opt=(maxcycles=50) scrf=(solvent=chloroform)
 ---------------------------------------------------------------

 ------------
 AT3_2ginp012
 ------------
 Symbolic Z-matrix:
 Charge =  0 Multiplicity = 1

 SCF Done:  E(RB3LYP) =  -836.487220385     A.U. after   12 cycles
 SCF Done:  E(RB3LYP) =  -836.491358576     A.U. after   10 cycles
 SCF Done:  E(RB3LYP) =  -836.491917546     A.U. after    9 cycles
 SCF Done:  E(RB3LYP) =  -836.492010576     A.U. after    9 cycles
 SCF Done:  E(RB3LYP) =  -836.492039953     A.U. after    9 cycles
 SCF Done:  E(RB3LYP) =  -836.492072157     A.U. after    9 cycles
 SCF Done:  E(RB3LYP) =  -836.492095426     A.U. after    9 cycles
 SCF Done:  E(RB3LYP) =  -836.492102347     A.U. after    8 cycles
 SCF Done:  E(RB3LYP) =  -836.492105514     A.U. after    8 cycles
 SCF Done:  E(RB3LYP) =  -836.492109205     A.U. after    8 cycles
 SCF Done:  E(RB3LYP) =  -836.492109721     A.U. after    8 cycles
 SCF Done:  E(RB3LYP) =  -836.492110259     A.U. after    8 cycles
 SCF Done:  E(RB3LYP) =  -836.492110245     A.U. after    7 cycles
 SCF Done:  E(RB3LYP) =  -836.492110277     A.U. after    6 cycles
 Optimization completed.
    -- Stationary point found.

                         Standard orientation:
 ---------------------------------------------------------------------
 Center     Atomic      Atomic             Coordinates (Angstroms)
 Number     Number       Type             X           Y           Z
 ---------------------------------------------------------------------
      1          6           0        1.560061    3.372042   -0.292208
      2          6           0        2.379459    2.221121    0.303559
      3          6           0        1.985347    0.835226   -0.239292
      4          6           0        2.996669   -0.271437    0.161814
      5          6           0        2.666241   -1.572830   -0.574029
      6          8           0        3.706789   -2.520806   -0.326854
      7          7           0        0.612545    0.460978    0.168753
      8          6           0       -0.349474    0.325621   -0.931484
      9          6           0       -4.224246   -0.789009    0.657297
     10          6           0       -3.289932   -1.781638    0.354992
     11          6           0       -2.057752   -1.395058   -0.156875
     12          6           0       -1.706372   -0.065754   -0.400503
     13          6           0       -2.675418    0.881469   -0.067392
     14          6           0       -3.924780    0.557743    0.447972
     15          1           0       -5.192483   -1.067662    1.059766
     16          1           0       -3.499805   -2.833436    0.511039
     17          1           0       -4.631451    1.346389    0.678721
     18          9           0       -1.150369   -2.355122   -0.452973
     19          9           0       -2.373227    2.189684   -0.260048
     20          1           0        1.859019    4.331815    0.140759
     21          1           0        1.701285    3.436453   -1.376939
     22          1           0        0.487639    3.247823   -0.105869
     23          1           0        3.444558    2.388604    0.101398
     24          1           0        2.273680    2.223145    1.396488
     25          1           0        3.986071    0.050428   -0.195605
     26          1           0        2.580998   -1.371052   -1.654918
     27          1           0        1.693567   -1.951109   -0.229409
     28          1           0        3.404563   -3.377801   -0.653630
     29          1           0       -0.453007    1.240340   -1.535332
     30          1           0        0.005571   -0.463333   -1.600356
     31          1           0        2.008986    0.904175   -1.338380
     32          6           0        3.071272   -0.502539    1.676625
     33          1           0        2.074753   -0.724014    2.073000
     34          1           0        3.724753   -1.350217    1.895871
     35          1           0        3.463532    0.372389    2.204281
     36          1           0        0.251560    1.135861    0.837009
 ---------------------------------------------------------------------

 The electronic state is 1-A.
 Alpha  occ. eigenvalues --  -24.71527 -24.71407 -19.13658 -14.31655 -10.28171
 Alpha  occ. eigenvalues --  -10.28137 -10.21843 -10.21750 -10.20892 -10.20877
 Alpha  occ. eigenvalues --  -10.20863 -10.20056 -10.20022 -10.18049 -10.17706
 Alpha  occ. eigenvalues --  -10.17381 -10.15979  -1.22457  -1.22360  -1.00621
 Alpha  occ. eigenvalues --   -0.90691  -0.87053  -0.79930  -0.76689  -0.75527
 Alpha  occ. eigenvalues --   -0.75388  -0.68618  -0.66799  -0.64989  -0.62797
 Alpha  occ. eigenvalues --   -0.61014  -0.58988  -0.55742  -0.54933  -0.52648
 Alpha  occ. eigenvalues --   -0.50374  -0.49548  -0.48864  -0.48214  -0.46888
 Alpha  occ. eigenvalues --   -0.46504  -0.45883  -0.44545  -0.43789  -0.43454
 Alpha  occ. eigenvalues --   -0.41848  -0.41540  -0.40742  -0.39368  -0.39325
 Alpha  occ. eigenvalues --   -0.38401  -0.37154  -0.36529  -0.36058  -0.35810
 Alpha  occ. eigenvalues --   -0.35407  -0.33963  -0.33696  -0.32190  -0.31635
 Alpha  occ. eigenvalues --   -0.30291  -0.26058  -0.25654  -0.24963  -0.21908
 Alpha virt. eigenvalues --   -0.01651  -0.00231   0.07093   0.08629   0.08990
 Alpha virt. eigenvalues --    0.10596   0.11300   0.12054   0.13780   0.14222
 Alpha virt. eigenvalues --    0.14825   0.15269   0.15544   0.16230   0.16863

 Mulliken charges:
               1
     1  C   -0.327779
     2  C   -0.197421
     3  C    0.071880
     4  C   -0.039032
     5  C    0.054193
     6  O   -0.571757
     7  N   -0.516637
     8  C   -0.072816
     9  C   -0.100201
    10  C   -0.139938
    11  C    0.328862
    12  C   -0.042998
    13  C    0.320728
    14  C   -0.139894
    15  H    0.117422
    16  H    0.116593
    17  H    0.116659
    18  F   -0.296504
    19  F   -0.301224
    20  H    0.105826
    21  H    0.106798
    22  H    0.104603
    23  H    0.100055
    24  H    0.101732
    25  H    0.083139
    26  H    0.071210
    27  H    0.098486
    28  H    0.318935
    29  H    0.098475
    30  H    0.118332
    31  H    0.082485
    32  C   -0.328786
    33  H    0.106344
    34  H    0.111064
    35  H    0.094704
    36  H    0.246463
 Sum of Mulliken charges =   0.00000

 Dipole moment (field-independent basis, Debye):
    X=             -2.8988    Y=              0.3744    Z=             -0.5041  Tot=              2.9660
 Quadrupole moment (field-independent basis, Debye-Ang):
   XX=            -99.3585   YY=            -96.0228   ZZ=           -100.3469
   XY=              6.6620   XZ=             -6.2169   YZ=              2.8182

 Normal termination of Gaussian 09 at Wed Mar  6 12:22:05 2019.
