 Gaussian 09, Revision D.01,
 Gaussian 09:  EM64L-G09RevD.01 24-Apr-2013

 ---------------------------------------------------------------
 # b3lyp/6-31g(d,p) Opt=(maxcycles=50) scrf=(solvent=chloroform)
 ---------------------------------------------------------------

 ------------
 AT3_1ginp014
 ------------
 Symbolic Z-matrix:
 Charge =  0 Multiplicity = 1

 SCF Done:  E(RB3LYP) =  -836.487590140     A.U. after   12 cycles
 SCF Done:  E(RB3LYP) =  -836.491550641     A.U. after   10 cycles
 SCF Done:  E(RB3LYP) =  -836.491992057     A.U. after   10 cycles
 SCF Done:  E(RB3LYP) =  -836.492139381     A.U. after    9 cycles
 SCF Done:  E(RB3LYP) =  -836.492158359     A.U. after   10 cycles
 SCF Done:  E(RB3LYP) =  -836.492237150     A.U. after    9 cycles
 SCF Done:  E(RB3LYP) =  -836.492264916     A.U. after    9 cycles
 SCF Done:  E(RB3LYP) =  -836.492274050     A.U. after    8 cycles
 SCF Done:  E(RB3LYP) =  -836.492279548     A.U. after    8 cycles
 SCF Done:  E(RB3LYP) =  -836.492282606     A.U. after    8 cycles
 SCF Done:  E(RB3LYP) =  -836.492285197     A.U. after    9 cycles
 SCF Done:  E(RB3LYP) =  -836.492286198     A.U. after    8 cycles
 SCF Done:  E(RB3LYP) =  -836.492286500     A.U. after    7 cycles
 Optimization completed.
    -- Stationary point found.

                         Standard orientation:
 ---------------------------------------------------------------------
 Center     Atomic      Atomic             Coordinates (Angstroms)
 Number     Number       Type             X           Y           Z
 ---------------------------------------------------------------------
      1          6           0        2.079056    2.744735   -0.023581
      2          6           0        2.192719    1.715026    1.107209
      3          6           0        1.894333    0.250300    0.695872
      4          6           0        2.926563   -0.344448   -0.297774
      5          6           0        2.665678   -1.840539   -0.505932
      6          8           0        3.511112   -2.305604   -1.561844
      7          7           0        0.542423    0.045568    0.142115
      8          6           0       -0.562883    0.370069    1.050448
      9          6           0       -4.376699   -0.378435   -0.878590
     10          6           0       -3.612654    0.730231   -1.248740
     11          6           0       -2.399686    0.932898   -0.605331
     12          6           0       -1.895521    0.096572    0.392247
     13          6           0       -2.699377   -0.997662    0.714483
     14          6           0       -3.925107   -1.253493    0.109448
     15          1           0       -5.329333   -0.561221   -1.364486
     16          1           0       -3.938233    1.424151   -2.014907
     17          1           0       -4.499964   -2.120578    0.413488
     18          9           0       -1.643425    2.003612   -0.964314
     19          9           0       -2.267821   -1.847871    1.674676
     20          1           0        1.070162    2.765575   -0.450168
     21          1           0        2.293165    3.751190    0.349514
     22          1           0        2.781500    2.540508   -0.838705
     23          1           0        3.191269    1.763236    1.554258
     24          1           0        1.502581    1.994834    1.912089
     25          1           0        2.777029    0.136113   -1.276056
     26          1           0        1.608520   -1.995709   -0.746568
     27          1           0        2.880267   -2.379861    0.432482
     28          1           0        3.333350   -3.247241   -1.681687
     29          1           0       -0.469178   -0.258213    1.940395
     30          1           0       -0.560796    1.416856    1.394030
     31          1           0        1.942074   -0.353027    1.615736
     32          6           0        4.383265   -0.116533    0.132150
     33          1           0        4.549400   -0.471682    1.157011
     34          1           0        5.052069   -0.673643   -0.528022
     35          1           0        4.670073    0.937502    0.090661
     36          1           0        0.443267    0.603053   -0.703829
 ---------------------------------------------------------------------

 The electronic state is 1-A.
 Alpha  occ. eigenvalues --  -24.71721 -24.71297 -19.13610 -14.31686 -10.28134
 Alpha  occ. eigenvalues --  -10.28130 -10.21826 -10.21577 -10.20963 -10.20957
 Alpha  occ. eigenvalues --  -10.20854 -10.20075 -10.20009 -10.18190 -10.17583
 Alpha  occ. eigenvalues --  -10.17208 -10.16614  -1.22545  -1.22339  -1.00556
 Alpha  occ. eigenvalues --   -0.90790  -0.87080  -0.80009  -0.76854  -0.75523
 Alpha  occ. eigenvalues --   -0.74993  -0.68978  -0.66495  -0.65206  -0.62803
 Alpha  occ. eigenvalues --   -0.61393  -0.58720  -0.55809  -0.55171  -0.52465
 Alpha  occ. eigenvalues --   -0.50612  -0.49156  -0.48860  -0.48249  -0.46558
 Alpha  occ. eigenvalues --   -0.46145  -0.45837  -0.45575  -0.43949  -0.43235
 Alpha  occ. eigenvalues --   -0.42220  -0.41531  -0.40245  -0.39656  -0.39257
 Alpha  occ. eigenvalues --   -0.38600  -0.37138  -0.36521  -0.36318  -0.35555
 Alpha  occ. eigenvalues --   -0.34914  -0.34129  -0.33741  -0.32812  -0.31239
 Alpha  occ. eigenvalues --   -0.30795  -0.26132  -0.25564  -0.24964  -0.21887
 Alpha virt. eigenvalues --   -0.01536  -0.00242   0.06914   0.08526   0.09067
 Alpha virt. eigenvalues --    0.10432   0.11579   0.12599   0.14250   0.14549
 Alpha virt. eigenvalues --    0.14793   0.15462   0.15818   0.16073   0.16895

 Mulliken charges:
               1
     1  C   -0.335728
     2  C   -0.187083
     3  C    0.079637
     4  C   -0.072788
     5  C    0.066975
     6  O   -0.572272
     7  N   -0.525720
     8  C   -0.074783
     9  C   -0.100759
    10  C   -0.138157
    11  C    0.321445
    12  C   -0.025252
    13  C    0.315585
    14  C   -0.139999
    15  H    0.117306
    16  H    0.117322
    17  H    0.116358
    18  F   -0.301731
    19  F   -0.299007
    20  H    0.104075
    21  H    0.106116
    22  H    0.111088
    23  H    0.098633
    24  H    0.093907
    25  H    0.090210
    26  H    0.099920
    27  H    0.072748
    28  H    0.318736
    29  H    0.118044
    30  H    0.102649
    31  H    0.086614
    32  C   -0.329292
    33  H    0.097564
    34  H    0.116855
    35  H    0.104368
    36  H    0.246417
 Sum of Mulliken charges =   0.00000

 Dipole moment (field-independent basis, Debye):
    X=             -2.3007    Y=             -0.0924    Z=              0.2873  Tot=              2.3204
 Quadrupole moment (field-independent basis, Debye-Ang):
   XX=            -95.8884   YY=            -95.7743   ZZ=           -101.4248
   XY=              1.3088   XZ=              8.6691   YZ=              1.2924

 Normal termination of Gaussian 09 at Wed Mar  6 12:06:35 2019.
