 Gaussian 09, Revision D.01,
 Gaussian 09:  EM64L-G09RevD.01 24-Apr-2013

 ---------------------------------------------------------------
 # b3lyp/6-31g(d,p) Opt=(maxcycles=50) scrf=(solvent=chloroform)
 ---------------------------------------------------------------

 ------------
 AT3_1ginp019
 ------------
 Symbolic Z-matrix:
 Charge =  0 Multiplicity = 1

 SCF Done:  E(RB3LYP) =  -836.487554150     A.U. after   12 cycles
 SCF Done:  E(RB3LYP) =  -836.491943737     A.U. after   10 cycles
 SCF Done:  E(RB3LYP) =  -836.492402554     A.U. after    9 cycles
 SCF Done:  E(RB3LYP) =  -836.492463849     A.U. after    9 cycles
 SCF Done:  E(RB3LYP) =  -836.492536172     A.U. after    9 cycles
 SCF Done:  E(RB3LYP) =  -836.492547545     A.U. after    8 cycles
 SCF Done:  E(RB3LYP) =  -836.492551250     A.U. after    8 cycles
 SCF Done:  E(RB3LYP) =  -836.492552716     A.U. after    7 cycles
 SCF Done:  E(RB3LYP) =  -836.492553598     A.U. after    7 cycles
 SCF Done:  E(RB3LYP) =  -836.492553896     A.U. after    7 cycles
 SCF Done:  E(RB3LYP) =  -836.492553935     A.U. after    7 cycles
 SCF Done:  E(RB3LYP) =  -836.492553886     A.U. after    7 cycles
 Optimization completed.
    -- Stationary point found.

                         Standard orientation:
 ---------------------------------------------------------------------
 Center     Atomic      Atomic             Coordinates (Angstroms)
 Number     Number       Type             X           Y           Z
 ---------------------------------------------------------------------
      1          6           0       -1.964583    2.708413   -0.946085
      2          6           0       -1.416988    1.889803    0.228783
      3          6           0       -1.209926    0.389640   -0.069234
      4          6           0       -2.475306   -0.334861   -0.597095
      5          6           0       -3.603300   -0.396129    0.436960
      6          8           0       -4.778610   -0.876758   -0.221312
      7          7           0       -0.723803   -0.302068    1.140448
      8          6           0        0.604820    0.073996    1.638122
      9          6           0        3.888442   -0.411827   -1.178849
     10          6           0        3.528078    0.869365   -0.761647
     11          6           0        2.476563    1.001397    0.139063
     12          6           0        1.758162   -0.077340    0.655425
     13          6           0        2.164297   -1.331980    0.195210
     14          6           0        3.204421   -1.532264   -0.701337
     15          1           0        4.705731   -0.539386   -1.880799
     16          1           0        4.041564    1.754746   -1.118389
     17          1           0        3.463340   -2.538666   -1.009339
     18          9           0        2.132723    2.250926    0.542066
     19          9           0        1.491386   -2.414895    0.663726
     20          1           0       -1.365051    2.556217   -1.851204
     21          1           0       -3.000661    2.451706   -1.187069
     22          1           0       -1.939965    3.777347   -0.711656
     23          1           0       -0.447733    2.313943    0.511135
     24          1           0       -2.066706    2.002145    1.104829
     25          1           0       -2.852174    0.264419   -1.434507
     26          1           0       -3.782687    0.601417    0.862633
     27          1           0       -3.316452   -1.057416    1.266390
     28          1           0       -5.465346   -0.983119    0.449465
     29          1           0        0.585012    1.103909    1.996338
     30          1           0        0.806325   -0.558517    2.508845
     31          1           0       -0.467891    0.334021   -0.889024
     32          6           0       -2.162482   -1.731861   -1.159324
     33          1           0       -3.059145   -2.163730   -1.609475
     34          1           0       -1.382007   -1.681638   -1.925984
     35          1           0       -1.826925   -2.430311   -0.383150
     36          1           0       -0.703916   -1.300940    0.956231
 ---------------------------------------------------------------------

 The electronic state is 1-A.
 Alpha  occ. eigenvalues --  -24.71629 -24.71489 -19.13792 -14.31760 -10.28152
 Alpha  occ. eigenvalues --  -10.28111 -10.22009 -10.21800 -10.20877 -10.20800
 Alpha  occ. eigenvalues --  -10.20734 -10.20096 -10.20066 -10.18267 -10.17432
 Alpha  occ. eigenvalues --  -10.17138 -10.16903  -1.22511  -1.22377  -1.00761
 Alpha  occ. eigenvalues --   -0.90707  -0.87030  -0.79882  -0.76795  -0.75534
 Alpha  occ. eigenvalues --   -0.75313  -0.68847  -0.67047  -0.64958  -0.62753
 Alpha  occ. eigenvalues --   -0.61361  -0.59446  -0.55733  -0.53832  -0.52396
 Alpha  occ. eigenvalues --   -0.50926  -0.49632  -0.48850  -0.47865  -0.47385
 Alpha  occ. eigenvalues --   -0.46583  -0.46039  -0.45002  -0.44066  -0.43346
 Alpha  occ. eigenvalues --   -0.42590  -0.41600  -0.40017  -0.39765  -0.38838
 Alpha  occ. eigenvalues --   -0.38324  -0.37306  -0.36509  -0.36105  -0.35656
 Alpha  occ. eigenvalues --   -0.35498  -0.35054  -0.33933  -0.31712  -0.31043
 Alpha  occ. eigenvalues --   -0.30661  -0.26169  -0.25672  -0.25015  -0.22340
 Alpha virt. eigenvalues --   -0.01629  -0.00293   0.07282   0.08487   0.09268
 Alpha virt. eigenvalues --    0.09745   0.11952   0.12569   0.13866   0.14246
 Alpha virt. eigenvalues --    0.14852   0.15119   0.15837   0.16037   0.16927

 Mulliken charges:
               1
     1  C   -0.331353
     2  C   -0.180917
     3  C    0.087914
     4  C   -0.092717
     5  C    0.073152
     6  O   -0.571723
     7  N   -0.521173
     8  C   -0.117841
     9  C   -0.102150
    10  C   -0.135573
    11  C    0.315216
    12  C   -0.013063
    13  C    0.314365
    14  C   -0.136362
    15  H    0.117517
    16  H    0.116556
    17  H    0.116835
    18  F   -0.300256
    19  F   -0.301727
    20  H    0.105588
    21  H    0.111966
    22  H    0.102661
    23  H    0.099406
    24  H    0.097108
    25  H    0.101307
    26  H    0.084588
    27  H    0.087948
    28  H    0.319320
    29  H    0.124525
    30  H    0.123519
    31  H    0.067706
    32  C   -0.328953
    33  H    0.119334
    34  H    0.102077
    35  H    0.096837
    36  H    0.248359
 Sum of Mulliken charges =   0.00000

 Dipole moment (field-independent basis, Debye):
    X=              1.7582    Y=             -0.2038    Z=             -0.0292  Tot=              1.7702
 Quadrupole moment (field-independent basis, Debye-Ang):
   XX=            -90.8444   YY=           -101.6357   ZZ=           -100.2036
   XY=             -1.9896   XZ=            -11.8483   YZ=             -1.0816

 Normal termination of Gaussian 09 at Wed Mar  6 11:59:09 2019.
