 Gaussian 09, Revision D.01,
 Gaussian 09:  EM64L-G09RevD.01 24-Apr-2013

 ---------------------------------------------------------------
 # b3lyp/6-31g(d,p) Opt=(maxcycles=50) scrf=(solvent=chloroform)
 ---------------------------------------------------------------

 ------------
 AT3_1ginp009
 ------------
 Symbolic Z-matrix:
 Charge =  0 Multiplicity = 1

 SCF Done:  E(RB3LYP) =  -836.487535748     A.U. after   12 cycles
 SCF Done:  E(RB3LYP) =  -836.491011311     A.U. after   10 cycles
 SCF Done:  E(RB3LYP) =  -836.491362894     A.U. after    9 cycles
 SCF Done:  E(RB3LYP) =  -836.491517423     A.U. after    9 cycles
 SCF Done:  E(RB3LYP) =  -836.491661656     A.U. after   10 cycles
 SCF Done:  E(RB3LYP) =  -836.491823522     A.U. after   10 cycles
 SCF Done:  E(RB3LYP) =  -836.491831967     A.U. after   10 cycles
 SCF Done:  E(RB3LYP) =  -836.491919858     A.U. after    9 cycles
 SCF Done:  E(RB3LYP) =  -836.492032111     A.U. after   10 cycles
 SCF Done:  E(RB3LYP) =  -836.492045920     A.U. after    9 cycles
 SCF Done:  E(RB3LYP) =  -836.492121544     A.U. after   10 cycles
 SCF Done:  E(RB3LYP) =  -836.492208285     A.U. after    9 cycles
 SCF Done:  E(RB3LYP) =  -836.492242372     A.U. after   10 cycles
 SCF Done:  E(RB3LYP) =  -836.492278324     A.U. after    9 cycles
 SCF Done:  E(RB3LYP) =  -836.492279616     A.U. after    7 cycles
 SCF Done:  E(RB3LYP) =  -836.492277088     A.U. after    8 cycles
 SCF Done:  E(RB3LYP) =  -836.492280593     A.U. after    8 cycles
 SCF Done:  E(RB3LYP) =  -836.492280816     A.U. after    6 cycles
 SCF Done:  E(RB3LYP) =  -836.492280977     A.U. after    6 cycles
 SCF Done:  E(RB3LYP) =  -836.492281154     A.U. after    6 cycles
 Optimization completed.
    -- Stationary point found.

                         Standard orientation:
 ---------------------------------------------------------------------
 Center     Atomic      Atomic             Coordinates (Angstroms)
 Number     Number       Type             X           Y           Z
 ---------------------------------------------------------------------
      1          6           0        2.187260    2.964984   -0.038773
      2          6           0        2.552485    1.626662   -0.695052
      3          6           0        1.913467    0.406928   -0.007079
      4          6           0        2.580586   -0.945379   -0.379857
      5          6           0        3.939044   -1.136049    0.298039
      6          8           0        3.756315   -1.138262    1.714294
      7          7           0        0.476031    0.354546   -0.348462
      8          6           0       -0.360944   -0.208785    0.719312
      9          6           0       -4.566471   -0.063718   -0.346259
     10          6           0       -3.919979   -1.297254   -0.271096
     11          6           0       -2.571287   -1.322359    0.068093
     12          6           0       -1.825004   -0.176185    0.346176
     13          6           0       -2.527930    1.026641    0.251934
     14          6           0       -3.871005    1.118646   -0.084729
     15          1           0       -5.617693   -0.022282   -0.611255
     16          1           0       -4.437343   -2.228709   -0.469775
     17          1           0       -4.347021    2.090830   -0.138061
     18          9           0       -1.952692   -2.523518    0.142097
     19          9           0       -1.840122    2.172395    0.500895
     20          1           0        2.639916    3.802939   -0.578306
     21          1           0        1.105279    3.138670   -0.019564
     22          1           0        2.541419    3.002157    0.997228
     23          1           0        2.253193    1.636009   -1.750647
     24          1           0        3.642863    1.519141   -0.685471
     25          1           0        1.932018   -1.733868    0.025355
     26          1           0        4.635781   -0.339334   -0.006961
     27          1           0        4.375136   -2.089029   -0.039869
     28          1           0        4.629363   -1.189329    2.124304
     29          1           0       -0.067613   -1.246394    0.892177
     30          1           0       -0.228048    0.322760    1.678293
     31          1           0        2.044748    0.533814    1.080844
     32          6           0        2.693863   -1.166761   -1.894015
     33          1           0        1.730239   -0.977416   -2.373257
     34          1           0        3.437613   -0.503469   -2.349877
     35          1           0        2.990872   -2.196905   -2.117299
     36          1           0        0.147356    1.300573   -0.520064
 ---------------------------------------------------------------------

 The electronic state is 1-A.
 Alpha  occ. eigenvalues --  -24.71622 -24.71175 -19.14076 -14.31306 -10.28026
 Alpha  occ. eigenvalues --  -10.28022 -10.22387 -10.21500 -10.20851 -10.20762
 Alpha  occ. eigenvalues --  -10.20219 -10.19984 -10.19907 -10.17946 -10.17814
 Alpha  occ. eigenvalues --  -10.17361 -10.16647  -1.22465  -1.22221  -1.01080
 Alpha  occ. eigenvalues --   -0.90450  -0.86953  -0.79874  -0.76946  -0.75421
 Alpha  occ. eigenvalues --   -0.75323  -0.68486  -0.66758  -0.64708  -0.62689
 Alpha  occ. eigenvalues --   -0.61014  -0.60089  -0.55552  -0.53703  -0.52475
 Alpha  occ. eigenvalues --   -0.50448  -0.49708  -0.48749  -0.48122  -0.47122
 Alpha  occ. eigenvalues --   -0.46644  -0.45897  -0.45711  -0.43730  -0.42943
 Alpha  occ. eigenvalues --   -0.41662  -0.40875  -0.40819  -0.39858  -0.39020
 Alpha  occ. eigenvalues --   -0.38267  -0.37053  -0.36549  -0.35940  -0.35795
 Alpha  occ. eigenvalues --   -0.35370  -0.34906  -0.33610  -0.32312  -0.30963
 Alpha  occ. eigenvalues --   -0.30371  -0.26582  -0.25474  -0.24864  -0.21968
 Alpha virt. eigenvalues --   -0.01452  -0.00142   0.07335   0.08085   0.09284
 Alpha virt. eigenvalues --    0.10445   0.11187   0.12907   0.13894   0.14336
 Alpha virt. eigenvalues --    0.14719   0.15647   0.16058   0.16431   0.16566

 Mulliken charges:
               1
     1  C   -0.329279
     2  C   -0.207909
     3  C    0.097309
     4  C   -0.059213
     5  C    0.059846
     6  O   -0.565274
     7  N   -0.537336
     8  C   -0.082303
     9  C   -0.100709
    10  C   -0.139940
    11  C    0.315437
    12  C   -0.022537
    13  C    0.320166
    14  C   -0.138248
    15  H    0.116771
    16  H    0.116118
    17  H    0.116593
    18  F   -0.298853
    19  F   -0.303381
    20  H    0.105228
    21  H    0.103413
    22  H    0.109699
    23  H    0.103845
    24  H    0.100238
    25  H    0.094182
    26  H    0.082424
    27  H    0.082948
    28  H    0.320417
    29  H    0.122528
    30  H    0.100675
    31  H    0.083694
    32  C   -0.328183
    33  H    0.117326
    34  H    0.099643
    35  H    0.098298
    36  H    0.246370
 Sum of Mulliken charges =   0.00000

 Dipole moment (field-independent basis, Debye):
    X=              0.3726    Y=              0.7874    Z=             -0.1213  Tot=              0.8795
 Quadrupole moment (field-independent basis, Debye-Ang):
   XX=            -72.7015   YY=           -101.3531   ZZ=           -103.3404
   XY=             -1.7041   XZ=              4.0059   YZ=             -0.5625

 Normal termination of Gaussian 09 at Wed Mar  6 12:02:09 2019.
