 Gaussian 09, Revision D.01,
 Gaussian 09:  EM64L-G09RevD.01 24-Apr-2013

 ---------------------------------------------------------------
 # b3lyp/6-31g(d,p) Opt=(maxcycles=50) scrf=(solvent=chloroform)
 ---------------------------------------------------------------

 ------------
 AT3_1ginp006
 ------------
 Symbolic Z-matrix:
 Charge =  0 Multiplicity = 1

 SCF Done:  E(RB3LYP) =  -836.496742614     A.U. after   12 cycles
 SCF Done:  E(RB3LYP) =  -836.500086764     A.U. after   10 cycles
 SCF Done:  E(RB3LYP) =  -836.496509195     A.U. after   11 cycles
 SCF Done:  E(RB3LYP) =  -836.500520629     A.U. after    9 cycles
 SCF Done:  E(RB3LYP) =  -836.500762171     A.U. after   10 cycles
 SCF Done:  E(RB3LYP) =  -836.500669251     A.U. after    9 cycles
 SCF Done:  E(RB3LYP) =  -836.500815585     A.U. after    9 cycles
 SCF Done:  E(RB3LYP) =  -836.500842913     A.U. after    9 cycles
 SCF Done:  E(RB3LYP) =  -836.500846617     A.U. after    8 cycles
 SCF Done:  E(RB3LYP) =  -836.500847884     A.U. after    7 cycles
 SCF Done:  E(RB3LYP) =  -836.500848494     A.U. after    7 cycles
 SCF Done:  E(RB3LYP) =  -836.500848593     A.U. after    6 cycles
 Optimization completed.
    -- Stationary point found.

                         Standard orientation:
 ---------------------------------------------------------------------
 Center     Atomic      Atomic             Coordinates (Angstroms)
 Number     Number       Type             X           Y           Z
 ---------------------------------------------------------------------
      1          6           0       -3.328907   -1.780931   -1.106461
      2          6           0       -2.201680   -1.714335   -0.069386
      3          6           0       -1.538040   -0.327001    0.104219
      4          6           0       -2.493072    0.793529    0.596473
      5          6           0       -1.724689    2.101435    0.885883
      6          8           0       -1.182320    2.727513   -0.263514
      7          7           0       -0.832609    0.147690   -1.113169
      8          6           0        0.364319   -0.609421   -1.522172
      9          6           0        3.700842    0.053170    1.169875
     10          6           0        3.013405   -1.159792    1.214313
     11          6           0        1.945061   -1.345424    0.344369
     12          6           0        1.523128   -0.386983   -0.578099
     13          6           0        2.247311    0.808220   -0.572507
     14          6           0        3.321428    1.053354    0.272378
     15          1           0        4.537249    0.221798    1.839947
     16          1           0        3.285663   -1.949989    1.904230
     17          1           0        3.839013    2.003993    0.218807
     18          9           0        1.269329   -2.519733    0.397314
     19          9           0        1.878930    1.769562   -1.449375
     20          1           0       -2.985429   -1.489615   -2.105700
     21          1           0       -3.716980   -2.801004   -1.186906
     22          1           0       -4.168108   -1.129164   -0.842768
     23          1           0       -2.581183   -2.043699    0.903932
     24          1           0       -1.420787   -2.437208   -0.331563
     25          1           0       -3.211936    1.019131   -0.204471
     26          1           0       -0.941065    1.886842    1.636637
     27          1           0       -2.411999    2.821311    1.347058
     28          1           0       -0.750853    1.991882   -0.750317
     29          1           0        0.186701   -1.687569   -1.614039
     30          1           0        0.644927   -0.241113   -2.513104
     31          1           0       -0.763392   -0.438463    0.875278
     32          6           0       -3.274798    0.376869    1.851955
     33          1           0       -2.596345    0.088687    2.664058
     34          1           0       -3.888319    1.208478    2.213502
     35          1           0       -3.944639   -0.465509    1.663091
     36          1           0       -1.485866    0.162684   -1.893876
 ---------------------------------------------------------------------

 The electronic state is 1-A.
 Alpha  occ. eigenvalues --  -24.71663 -24.71472 -19.11028 -14.33479 -10.28342
 Alpha  occ. eigenvalues --  -10.28237 -10.22574 -10.21468 -10.21382 -10.21090
 Alpha  occ. eigenvalues --  -10.20984 -10.20139 -10.20078 -10.18443 -10.17970
 Alpha  occ. eigenvalues --  -10.17624 -10.17409  -1.22613  -1.22488  -0.98813
 Alpha  occ. eigenvalues --   -0.91551  -0.87209  -0.80223  -0.77373  -0.75618
 Alpha  occ. eigenvalues --   -0.75301  -0.69636  -0.66102  -0.65638  -0.62891
 Alpha  occ. eigenvalues --   -0.61612  -0.59487  -0.56097  -0.55466  -0.52813
 Alpha  occ. eigenvalues --   -0.49938  -0.49433  -0.48959  -0.48556  -0.47241
 Alpha  occ. eigenvalues --   -0.46266  -0.46064  -0.44511  -0.43830  -0.43106
 Alpha  occ. eigenvalues --   -0.42076  -0.41700  -0.40926  -0.39843  -0.39562
 Alpha  occ. eigenvalues --   -0.38832  -0.37611  -0.37450  -0.36022  -0.35830
 Alpha  occ. eigenvalues --   -0.35189  -0.34875  -0.34213  -0.33210  -0.31589
 Alpha  occ. eigenvalues --   -0.30956  -0.25830  -0.25042  -0.24404  -0.23052
 Alpha virt. eigenvalues --   -0.01875  -0.00335   0.06987   0.08048   0.09171
 Alpha virt. eigenvalues --    0.11164   0.11960   0.13414   0.13711   0.14321
 Alpha virt. eigenvalues --    0.14664   0.14908   0.15302   0.15802   0.17241

 Mulliken charges:
               1
     1  C   -0.331633
     2  C   -0.192038
     3  C    0.084158
     4  C   -0.093909
     5  C    0.082020
     6  O   -0.604019
     7  N   -0.551879
     8  C   -0.098509
     9  C   -0.100090
    10  C   -0.139162
    11  C    0.320400
    12  C   -0.013964
    13  C    0.332419
    14  C   -0.137417
    15  H    0.118838
    16  H    0.117480
    17  H    0.119296
    18  F   -0.301627
    19  F   -0.295399
    20  H    0.100038
    21  H    0.109715
    22  H    0.113792
    23  H    0.102853
    24  H    0.099554
    25  H    0.090507
    26  H    0.065676
    27  H    0.085907
    28  H    0.325048
    29  H    0.111581
    30  H    0.126765
    31  H    0.097833
    32  C   -0.330620
    33  H    0.106594
    34  H    0.105756
    35  H    0.111107
    36  H    0.262927
 Sum of Mulliken charges =   0.00000

 Dipole moment (field-independent basis, Debye):
    X=              0.9056    Y=             -3.5579    Z=              0.5435  Tot=              3.7113
 Quadrupole moment (field-independent basis, Debye-Ang):
   XX=            -89.0578   YY=           -114.1909   ZZ=            -95.3046
   XY=              4.9838   XZ=              4.7808   YZ=              3.2080

 Normal termination of Gaussian 09 at Wed Mar  6 11:19:21 2019.
