 Gaussian 09, Revision D.01,
 Gaussian 09:  ES64L-G09RevD.01 24-Apr-2013

 -------------------------------------------------------
 # mPW1PW91/6-311g(d) nmr=giao scrf=(solvent=chloroform)
 -------------------------------------------------------

 ------------
 AT3_2ginp009
 ------------
 Symbolic Z-matrix:
 Charge =  0 Multiplicity = 1

                         Standard orientation:
 ---------------------------------------------------------------------
 Center     Atomic      Atomic             Coordinates (Angstroms)
 Number     Number       Type             X           Y           Z
 ---------------------------------------------------------------------
      1          6           0       -3.903874   -1.745482   -1.195214
      2          6           0       -2.481945   -1.681201   -0.652518
      3          6           0       -1.988847   -0.242443   -0.372758
      4          6           0       -2.885357    0.550272    0.627240
      5          6           0       -2.372784    1.980853    0.882669
      6          8           0       -2.135996    2.675793   -0.334963
      7          7           0       -0.601681   -0.251009    0.123203
      8          6           0        0.388919   -0.494402   -0.925840
      9          6           0        4.361785    0.224929    0.604692
     10          6           0        3.656713    1.248750   -0.026515
     11          6           0        2.375940    1.006333   -0.522078
     12          6           0        1.775659   -0.248566   -0.407390
     13          6           0        2.494815   -1.257560    0.234621
     14          6           0        3.776486   -1.033509    0.736106
     15          1           0        5.359698    0.408080    0.994787
     16          1           0        4.093074    2.237289   -0.135154
     17          1           0        4.307464   -1.842539    1.228825
     18          9           0        1.720767    2.009471   -1.124813
     19          9           0        1.950759   -2.474689    0.380616
     20          1           0       -4.637586   -1.433772   -0.446641
     21          1           0       -4.015865   -1.109756   -2.079105
     22          1           0       -4.147375   -2.772921   -1.484904
     23          1           0       -2.410792   -2.301124    0.248947
     24          1           0       -1.830079   -2.152173   -1.397945
     25          1           0       -3.870484    0.658910    0.154636
     26          1           0       -1.451721    1.990009    1.476414
     27          1           0       -3.123367    2.549747    1.442176
     28          1           0       -1.264882    2.368145   -0.649613
     29          1           0        0.321642   -1.521023   -1.303944
     30          1           0        0.212025    0.164206   -1.785381
     31          1           0       -2.021012    0.303956   -1.325029
     32          6           0       -3.086149   -0.151897    1.975371
     33          1           0       -3.570394   -1.125025    1.854738
     34          1           0       -2.136265   -0.304522    2.497738
     35          1           0       -3.730959    0.447389    2.627842
     36          1           0       -0.495285   -0.963636    0.846359
 ---------------------------------------------------------------------

 SCF Done:  E(RmPW1PW91) =  -836.460296954     A.U. after   12 cycles

      1  C    Isotropic =   176.0188   Anisotropy =    18.7586

      2  C    Isotropic =   161.3791   Anisotropy =    24.4219

      3  C    Isotropic =   126.4250   Anisotropy =    46.4564

      4  C    Isotropic =   148.5124   Anisotropy =    16.5677

      5  C    Isotropic =   120.2116   Anisotropy =    65.7087

      6  O    Isotropic =   306.3354   Anisotropy =    52.2081

      7  N    Isotropic =   202.6593   Anisotropy =    50.1615

      8  C    Isotropic =   146.7329   Anisotropy =    53.3668

      9  C    Isotropic =    54.7010   Anisotropy =   185.6478

     10  C    Isotropic =    70.5429   Anisotropy =   149.0116

     11  C    Isotropic =    19.1165   Anisotropy =    99.6578

     12  C    Isotropic =    65.4167   Anisotropy =   142.3870

     13  C    Isotropic =    19.7846   Anisotropy =    98.2629

     14  C    Isotropic =    71.0762   Anisotropy =   148.3686

     15  H    Isotropic =    24.5406   Anisotropy =     3.1724

     16  H    Isotropic =    25.1880   Anisotropy =     5.0780

     17  H    Isotropic =    25.2245   Anisotropy =     4.9464

     18  F    Isotropic =   305.4638   Anisotropy =   129.9682

     19  F    Isotropic =   307.1861   Anisotropy =   126.0450

     20  H    Isotropic =    31.0906   Anisotropy =     7.4384

     21  H    Isotropic =    31.3552   Anisotropy =     9.1472

     22  H    Isotropic =    30.9911   Anisotropy =    11.4660

     23  H    Isotropic =    30.8390   Anisotropy =     5.0365

     24  H    Isotropic =    29.6944   Anisotropy =     6.1292

     25  H    Isotropic =    30.0736   Anisotropy =     6.3686

     26  H    Isotropic =    28.2797   Anisotropy =     3.1108

     27  H    Isotropic =    28.7220   Anisotropy =     6.6935

     28  H    Isotropic =    30.9445   Anisotropy =    15.9703

     29  H    Isotropic =    27.8826   Anisotropy =     6.2204

     30  H    Isotropic =    28.8937   Anisotropy =     5.8988

     31  H    Isotropic =    29.1513   Anisotropy =     1.6442

     32  C    Isotropic =   179.2446   Anisotropy =    18.1559

     33  H    Isotropic =    31.2899   Anisotropy =     8.4273

     34  H    Isotropic =    31.9535   Anisotropy =     7.0440

     35  H    Isotropic =    31.6883   Anisotropy =    11.1229

     36  H    Isotropic =    32.1303   Anisotropy =     8.4072

 The electronic state is 1-A.
 Alpha  occ. eigenvalues --  -24.80524 -24.80490 -19.20224 -14.38053 -10.33787
 Alpha  occ. eigenvalues --  -10.33782 -10.26868 -10.26525 -10.26360 -10.26192
 Alpha  occ. eigenvalues --  -10.26005 -10.25225 -10.25204 -10.23192 -10.22675
 Alpha  occ. eigenvalues --  -10.21900 -10.21763  -1.27791  -1.27697  -1.04300
 Alpha  occ. eigenvalues --   -0.94438  -0.90468  -0.83116  -0.79985  -0.78657
 Alpha  occ. eigenvalues --   -0.78254  -0.71797  -0.68959  -0.67584  -0.66082
 Alpha  occ. eigenvalues --   -0.63788  -0.62839  -0.59163  -0.57398  -0.55763
 Alpha  occ. eigenvalues --   -0.52487  -0.52169  -0.52011  -0.51346  -0.49705
 Alpha  occ. eigenvalues --   -0.49583  -0.47984  -0.47256  -0.46944  -0.46453
 Alpha  occ. eigenvalues --   -0.44275  -0.43033  -0.42246  -0.42013  -0.41461
 Alpha  occ. eigenvalues --   -0.40885  -0.39705  -0.38997  -0.38218  -0.37672
 Alpha  occ. eigenvalues --   -0.37594  -0.36280  -0.35793  -0.35115  -0.33259
 Alpha  occ. eigenvalues --   -0.32025  -0.27820  -0.27526  -0.26806  -0.23983
 Alpha virt. eigenvalues --   -0.02059  -0.00932   0.04752   0.05535   0.06201
 Alpha virt. eigenvalues --    0.06600   0.07525   0.10074   0.10425   0.11000
 Alpha virt. eigenvalues --    0.11288   0.11642   0.11870   0.13287   0.13484

 Mulliken charges:
               1
     1  C   -0.664920
     2  C   -0.455535
     3  C   -0.175039
     4  C   -0.256108
     5  C   -0.201813
     6  O   -0.592903
     7  N   -0.535976
     8  C   -0.378305
     9  C   -0.194009
    10  C   -0.284278
    11  C    0.340010
    12  C   -0.153444
    13  C    0.339425
    14  C   -0.283800
    15  H    0.233448
    16  H    0.235154
    17  H    0.234306
    18  F   -0.236533
    19  F   -0.237664
    20  H    0.230369
    21  H    0.226796
    22  H    0.225561
    23  H    0.222192
    24  H    0.233968
    25  H    0.230288
    26  H    0.211946
    27  H    0.220246
    28  H    0.403217
    29  H    0.232234
    30  H    0.247988
    31  H    0.237290
    32  C   -0.680150
    33  H    0.235965
    34  H    0.225945
    35  H    0.231285
    36  H    0.332842
 Sum of Mulliken charges =   0.00000

 Dipole moment (field-independent basis, Debye):
    X=              2.2213    Y=             -2.4658    Z=              0.8449  Tot=              3.4246
 Quadrupole moment (field-independent basis, Debye-Ang):
   XX=            -91.1387   YY=           -110.3939   ZZ=           -100.6990
   XY=              8.6472   XZ=              1.1883   YZ=              1.8168

 Normal termination of Gaussian 09 at Mon Mar  4 11:28:50 2019.
