 Gaussian 09, Revision D.01,
 Gaussian 09:  ES64L-G09RevD.01 24-Apr-2013

 -------------------------------------------------------
 # mPW1PW91/6-311g(d) nmr=giao scrf=(solvent=chloroform)
 -------------------------------------------------------

 ------------
 AT3_2ginp007
 ------------
 Symbolic Z-matrix:
 Charge =  0 Multiplicity = 1

                         Standard orientation:
 ---------------------------------------------------------------------
 Center     Atomic      Atomic             Coordinates (Angstroms)
 Number     Number       Type             X           Y           Z
 ---------------------------------------------------------------------
      1          6           0       -2.139685    3.182704   -0.612144
      2          6           0       -2.630946    1.739030   -0.676883
      3          6           0       -1.889562    0.786786    0.294339
      4          6           0       -2.586489   -0.601531    0.419925
      5          6           0       -2.686614   -1.350415   -0.917906
      6          8           0       -3.171162   -2.675627   -0.709867
      7          7           0       -0.493612    0.617162   -0.151063
      8          6           0        0.409965    0.250606    0.944338
      9          6           0        4.368665   -0.546497   -0.586181
     10          6           0        3.483060   -1.597137   -0.350221
     11          6           0        2.207763   -1.332033    0.148341
     12          6           0        1.790309   -0.029281    0.425265
     13          6           0        2.689835    1.008605    0.176546
     14          6           0        3.968647    0.762381   -0.321626
     15          1           0        5.363063   -0.746729   -0.976838
     16          1           0        3.774405   -2.623499   -0.552897
     17          1           0        4.642045    1.594789   -0.502831
     18          9           0        1.379519   -2.363517    0.369714
     19          9           0        2.326035    2.277106    0.416341
     20          1           0       -2.772032    3.819216   -1.239895
     21          1           0       -2.186993    3.566829    0.411722
     22          1           0       -1.112824    3.284717   -0.973608
     23          1           0       -3.700102    1.753046   -0.441185
     24          1           0       -2.541514    1.383048   -1.710424
     25          1           0       -1.999815   -1.227558    1.104603
     26          1           0       -1.716134   -1.427155   -1.417863
     27          1           0       -3.381505   -0.853095   -1.601530
     28          1           0       -2.478448   -3.151828   -0.219583
     29          1           0        0.459239    1.060368    1.683601
     30          1           0        0.050194   -0.632739    1.482690
     31          1           0       -1.895915    1.267900    1.282117
     32          6           0       -3.970175   -0.488174    1.077836
     33          1           0       -4.704834   -0.024898    0.412455
     34          1           0       -4.352615   -1.478805    1.347101
     35          1           0       -3.916992    0.102784    1.998143
     36          1           0       -0.143281    1.485912   -0.553675
 ---------------------------------------------------------------------

 SCF Done:  E(RmPW1PW91) =  -836.457845146     A.U. after   12 cycles

      1  C    Isotropic =   174.7670   Anisotropy =    23.8119

      2  C    Isotropic =   163.8104   Anisotropy =    16.4775

      3  C    Isotropic =   120.3316   Anisotropy =    21.3242

      4  C    Isotropic =   145.7004   Anisotropy =    30.7151

      5  C    Isotropic =   120.9248   Anisotropy =    51.8191

      6  O    Isotropic =   302.1279   Anisotropy =   116.0014

      7  N    Isotropic =   200.7361   Anisotropy =    49.2429

      8  C    Isotropic =   147.4822   Anisotropy =    52.0558

      9  C    Isotropic =    54.6059   Anisotropy =   185.5152

     10  C    Isotropic =    70.6196   Anisotropy =   148.8351

     11  C    Isotropic =    19.5196   Anisotropy =    98.9623

     12  C    Isotropic =    66.1010   Anisotropy =   141.3959

     13  C    Isotropic =    19.2331   Anisotropy =    98.7337

     14  C    Isotropic =    71.0284   Anisotropy =   148.1699

     15  H    Isotropic =    24.5412   Anisotropy =     3.2019

     16  H    Isotropic =    25.1772   Anisotropy =     5.1335

     17  H    Isotropic =    25.2045   Anisotropy =     4.9303

     18  F    Isotropic =   301.5082   Anisotropy =   128.2386

     19  F    Isotropic =   305.7296   Anisotropy =   127.6688

     20  H    Isotropic =    30.9214   Anisotropy =    11.3159

     21  H    Isotropic =    31.4229   Anisotropy =     8.7500

     22  H    Isotropic =    31.2064   Anisotropy =     7.5644

     23  H    Isotropic =    30.4929   Anisotropy =     7.1182

     24  H    Isotropic =    31.1042   Anisotropy =     5.9265

     25  H    Isotropic =    30.1933   Anisotropy =     5.9089

     26  H    Isotropic =    27.7989   Anisotropy =     5.8594

     27  H    Isotropic =    28.9255   Anisotropy =     4.4087

     28  H    Isotropic =    32.3048   Anisotropy =    15.7557

     29  H    Isotropic =    28.4881   Anisotropy =     6.8746

     30  H    Isotropic =    28.4187   Anisotropy =     4.8378

     31  H    Isotropic =    29.5991   Anisotropy =     3.2528

     32  C    Isotropic =   171.1820   Anisotropy =    26.3353

     33  H    Isotropic =    31.2851   Anisotropy =     8.1300

     34  H    Isotropic =    30.3369   Anisotropy =     9.1721

     35  H    Isotropic =    31.4268   Anisotropy =     8.9463

     36  H    Isotropic =    31.3074   Anisotropy =     9.6605

 The electronic state is 1-A.
 Alpha  occ. eigenvalues --  -24.80572 -24.80361 -19.20150 -14.37936 -10.33798
 Alpha  occ. eigenvalues --  -10.33777 -10.26727 -10.26499 -10.26394 -10.26349
 Alpha  occ. eigenvalues --  -10.26006 -10.25228 -10.25197 -10.23429 -10.22984
 Alpha  occ. eigenvalues --  -10.22142 -10.21442  -1.27831  -1.27601  -1.04267
 Alpha  occ. eigenvalues --   -0.94328  -0.90459  -0.83095  -0.80007  -0.78652
 Alpha  occ. eigenvalues --   -0.78359  -0.71531  -0.69265  -0.67543  -0.66064
 Alpha  occ. eigenvalues --   -0.63814  -0.62684  -0.59080  -0.57395  -0.56018
 Alpha  occ. eigenvalues --   -0.52180  -0.52003  -0.51356  -0.50896  -0.49673
 Alpha  occ. eigenvalues --   -0.49330  -0.48854  -0.48104  -0.47033  -0.45964
 Alpha  occ. eigenvalues --   -0.45070  -0.43089  -0.42547  -0.41894  -0.41543
 Alpha  occ. eigenvalues --   -0.40802  -0.39039  -0.38825  -0.37923  -0.37822
 Alpha  occ. eigenvalues --   -0.37556  -0.36663  -0.35680  -0.34772  -0.32635
 Alpha  occ. eigenvalues --   -0.32210  -0.28085  -0.27535  -0.26799  -0.24068
 Alpha virt. eigenvalues --   -0.02050  -0.00935   0.04791   0.05610   0.06084
 Alpha virt. eigenvalues --    0.07438   0.07555   0.09324   0.10208   0.10724
 Alpha virt. eigenvalues --    0.11066   0.11611   0.12592   0.12758   0.13331

 Mulliken charges:
               1
     1  C   -0.661900
     2  C   -0.484945
     3  C   -0.104315
     4  C   -0.291032
     5  C   -0.192400
     6  O   -0.596437
     7  N   -0.543434
     8  C   -0.377960
     9  C   -0.193749
    10  C   -0.285964
    11  C    0.341723
    12  C   -0.155664
    13  C    0.335460
    14  C   -0.284424
    15  H    0.233496
    16  H    0.234387
    17  H    0.234531
    18  F   -0.237413
    19  F   -0.237313
    20  H    0.231599
    21  H    0.226061
    22  H    0.221393
    23  H    0.242681
    24  H    0.233742
    25  H    0.214720
    26  H    0.223588
    27  H    0.220925
    28  H    0.400279
    29  H    0.227231
    30  H    0.255555
    31  H    0.211440
    32  C   -0.651396
    33  H    0.222075
    34  H    0.232304
    35  H    0.223627
    36  H    0.331531
 Sum of Mulliken charges =   0.00000

 Dipole moment (field-independent basis, Debye):
    X=              2.9448    Y=              1.5332    Z=              0.7608  Tot=              3.4061
 Quadrupole moment (field-independent basis, Debye-Ang):
   XX=            -97.8661   YY=           -103.0091   ZZ=           -103.1401
   XY=            -11.2191   XZ=             -6.8193   YZ=             -3.9827

 Normal termination of Gaussian 09 at Mon Mar  4 11:28:29 2019.
