 Gaussian 09, Revision D.01,
 Gaussian 09:  ES64L-G09RevD.01 24-Apr-2013

 -------------------------------------------------------
 # mPW1PW91/6-311g(d) nmr=giao scrf=(solvent=chloroform)
 -------------------------------------------------------

 ------------
 AT3_2ginp002
 ------------
 Symbolic Z-matrix:
 Charge =  0 Multiplicity = 1

                         Standard orientation:
 ---------------------------------------------------------------------
 Center     Atomic      Atomic             Coordinates (Angstroms)
 Number     Number       Type             X           Y           Z
 ---------------------------------------------------------------------
      1          6           0        2.470638    2.918670    0.302251
      2          6           0        2.868374    1.457914    0.498297
      3          6           0        2.055991    0.470891   -0.377214
      4          6           0        2.668000   -0.967665   -0.390142
      5          6           0        2.733114   -1.633373    0.995387
      6          8           0        1.438679   -1.820515    1.551949
      7          7           0        0.655203    0.431232    0.099909
      8          6           0       -0.285760    0.077595   -0.975792
      9          6           0       -4.333359   -0.099459    0.525750
     10          6           0       -3.690989    1.128813    0.380562
     11          6           0       -2.385676    1.173624   -0.107411
     12          6           0       -1.694452    0.012169   -0.459067
     13          6           0       -2.356864   -1.206695   -0.308422
     14          6           0       -3.662349   -1.271083    0.178559
     15          1           0       -5.349835   -0.144478    0.908119
     16          1           0       -4.195630    2.052735    0.646608
     17          1           0       -4.144740   -2.238433    0.284056
     18          9           0       -1.787001    2.367433   -0.235180
     19          9           0       -1.744641   -2.350074   -0.647419
     20          1           0        3.149365    3.567575    0.865591
     21          1           0        2.532263    3.202877   -0.752988
     22          1           0        1.456371    3.120967    0.656946
     23          1           0        3.933556    1.381445    0.257604
     24          1           0        2.766903    1.206025    1.560761
     25          1           0        2.022019   -1.593271   -1.019861
     26          1           0        3.330277   -1.046257    1.699664
     27          1           0        3.197502   -2.622419    0.920877
     28          1           0        0.903768   -1.043969    1.276282
     29          1           0       -0.242824    0.822301   -1.780991
     30          1           0       -0.017641   -0.884288   -1.425058
     31          1           0        2.078277    0.862247   -1.403654
     32          6           0        4.055849   -0.992005   -1.040274
     33          1           0        4.815396   -0.521592   -0.408770
     34          1           0        4.374612   -2.025401   -1.216662
     35          1           0        4.044207   -0.480447   -2.008182
     36          1           0        0.379974    1.357282    0.433184
 ---------------------------------------------------------------------

 SCF Done:  E(RmPW1PW91) =  -836.465980219     A.U. after   12 cycles

      1  C    Isotropic =   175.2488   Anisotropy =    22.6739

      2  C    Isotropic =   165.0263   Anisotropy =    16.2419

      3  C    Isotropic =   118.3054   Anisotropy =    19.9052

      4  C    Isotropic =   151.0444   Anisotropy =    22.0122

      5  C    Isotropic =   119.3392   Anisotropy =    67.3988

      6  O    Isotropic =   302.3921   Anisotropy =    75.0939

      7  N    Isotropic =   199.4770   Anisotropy =    45.3885

      8  C    Isotropic =   146.9640   Anisotropy =    50.8295

      9  C    Isotropic =    54.1371   Anisotropy =   186.5109

     10  C    Isotropic =    70.9023   Anisotropy =   148.1213

     11  C    Isotropic =    18.8281   Anisotropy =    98.1117

     12  C    Isotropic =    67.6597   Anisotropy =   138.8463

     13  C    Isotropic =    20.5436   Anisotropy =    99.2141

     14  C    Isotropic =    70.2693   Anisotropy =   149.6020

     15  H    Isotropic =    24.5186   Anisotropy =     3.1848

     16  H    Isotropic =    25.1874   Anisotropy =     5.1261

     17  H    Isotropic =    25.1618   Anisotropy =     5.0144

     18  F    Isotropic =   305.7836   Anisotropy =   129.5902

     19  F    Isotropic =   298.8211   Anisotropy =   127.0962

     20  H    Isotropic =    30.7922   Anisotropy =    11.3107

     21  H    Isotropic =    31.3280   Anisotropy =     8.7987

     22  H    Isotropic =    31.0775   Anisotropy =     7.6318

     23  H    Isotropic =    30.4984   Anisotropy =     7.6397

     24  H    Isotropic =    30.5784   Anisotropy =     6.0506

     25  H    Isotropic =    29.6697   Anisotropy =     5.0626

     26  H    Isotropic =    28.2061   Anisotropy =     4.3975

     27  H    Isotropic =    28.5883   Anisotropy =     6.9941

     28  H    Isotropic =    27.6865   Anisotropy =    24.1030

     29  H    Isotropic =    28.6209   Anisotropy =     6.0036

     30  H    Isotropic =    28.0718   Anisotropy =     6.1346

     31  H    Isotropic =    29.4558   Anisotropy =     3.2748

     32  C    Isotropic =   172.7502   Anisotropy =    27.8147

     33  H    Isotropic =    31.4804   Anisotropy =     7.7867

     34  H    Isotropic =    31.1885   Anisotropy =    10.7507

     35  H    Isotropic =    31.4539   Anisotropy =     9.3450

     36  H    Isotropic =    30.5042   Anisotropy =    10.3450

 The electronic state is 1-A.
 Alpha  occ. eigenvalues --  -24.80972 -24.80319 -19.17497 -14.39789 -10.34028
 Alpha  occ. eigenvalues --  -10.33923 -10.27420 -10.27022 -10.26696 -10.26201
 Alpha  occ. eigenvalues --  -10.26116 -10.25371 -10.25278 -10.23759 -10.23307
 Alpha  occ. eigenvalues --  -10.22381 -10.22113  -1.28202  -1.27596  -1.02270
 Alpha  occ. eigenvalues --   -0.95323  -0.90688  -0.83459  -0.80480  -0.78781
 Alpha  occ. eigenvalues --   -0.78711  -0.72045  -0.68665  -0.68031  -0.66208
 Alpha  occ. eigenvalues --   -0.64230  -0.63012  -0.59252  -0.57854  -0.56265
 Alpha  occ. eigenvalues --   -0.52524  -0.52121  -0.51694  -0.51162  -0.49972
 Alpha  occ. eigenvalues --   -0.49632  -0.49331  -0.47228  -0.47005  -0.45682
 Alpha  occ. eigenvalues --   -0.44376  -0.43122  -0.42888  -0.42496  -0.41650
 Alpha  occ. eigenvalues --   -0.40600  -0.40179  -0.39344  -0.39054  -0.38081
 Alpha  occ. eigenvalues --   -0.37753  -0.37012  -0.35459  -0.34503  -0.32923
 Alpha  occ. eigenvalues --   -0.32550  -0.27760  -0.26907  -0.26283  -0.25624
 Alpha virt. eigenvalues --   -0.02259  -0.01074   0.04898   0.05870   0.06174
 Alpha virt. eigenvalues --    0.07120   0.08299   0.10154   0.10294   0.10491
 Alpha virt. eigenvalues --    0.11126   0.11649   0.12528   0.12719   0.13360

 Mulliken charges:
               1
     1  C   -0.662061
     2  C   -0.480791
     3  C   -0.099558
     4  C   -0.317293
     5  C   -0.157038
     6  O   -0.626941
     7  N   -0.608030
     8  C   -0.377728
     9  C   -0.191982
    10  C   -0.280527
    11  C    0.339264
    12  C   -0.144356
    13  C    0.328930
    14  C   -0.284081
    15  H    0.234672
    16  H    0.236010
    17  H    0.236444
    18  F   -0.237438
    19  F   -0.232574
    20  H    0.233927
    21  H    0.227078
    22  H    0.221901
    23  H    0.244868
    24  H    0.238589
    25  H    0.231457
    26  H    0.200363
    27  H    0.212833
    28  H    0.408986
    29  H    0.240299
    30  H    0.266473
    31  H    0.222747
    32  C   -0.666750
    33  H    0.227585
    34  H    0.233877
    35  H    0.229163
    36  H    0.351680
 Sum of Mulliken charges =   0.00000

 Dipole moment (field-independent basis, Debye):
    X=             -0.9741    Y=              3.1261    Z=             -1.9702  Tot=              3.8214
 Quadrupole moment (field-independent basis, Debye-Ang):
   XX=            -82.5258   YY=           -106.9037   ZZ=           -106.3883
   XY=              3.4641   XZ=             -6.4807   YZ=              5.9971

 Normal termination of Gaussian 09 at Mon Mar  4 11:28:50 2019.
