 Gaussian 09, Revision D.01,
 Gaussian 09:  ES64L-G09RevD.01 24-Apr-2013

 -------------------------------------------------------
 # mPW1PW91/6-311g(d) nmr=giao scrf=(solvent=chloroform)
 -------------------------------------------------------

 ------------
 AT3_2ginp001
 ------------
 Symbolic Z-matrix:
 Charge =  0 Multiplicity = 1

                         Standard orientation:
 ---------------------------------------------------------------------
 Center     Atomic      Atomic             Coordinates (Angstroms)
 Number     Number       Type             X           Y           Z
 ---------------------------------------------------------------------
      1          6           0       -3.958980   -1.788935   -1.142602
      2          6           0       -2.547456   -1.651292   -0.586917
      3          6           0       -2.044067   -0.190660   -0.514173
      4          6           0       -2.965523    0.747502    0.329172
      5          6           0       -2.487516    2.212924    0.272822
      6          8           0       -1.255726    2.403790    0.955484
      7          7           0       -0.665407   -0.138773    0.014285
      8          6           0        0.345668   -0.547805   -0.965982
      9          6           0        4.307950    0.103572    0.625057
     10          6           0        3.760247    1.007963   -0.283677
     11          6           0        2.482313    0.788963   -0.797531
     12          6           0        1.728208   -0.324446   -0.424929
     13          6           0        2.294100   -1.216322    0.488148
     14          6           0        3.570248   -1.013984    1.011969
     15          1           0        5.302159    0.271071    1.031261
     16          1           0        4.317438    1.886471   -0.595566
     17          1           0        3.977513   -1.728069    1.721443
     18          9           0        1.985494    1.672201   -1.675426
     19          9           0        1.601234   -2.296077    0.879769
     20          1           0       -4.199306   -2.846340   -1.294506
     21          1           0       -4.705379   -1.380377   -0.455612
     22          1           0       -4.053788   -1.278976   -2.106340
     23          1           0       -2.501432   -2.128869    0.398959
     24          1           0       -1.886381   -2.233853   -1.239245
     25          1           0       -3.961054    0.741771   -0.132198
     26          1           0       -3.228560    2.872096    0.737036
     27          1           0       -2.360007    2.539783   -0.764699
     28          1           0       -0.680751    1.660186    0.668975
     29          1           0        0.239910   -1.606046   -1.230892
     30          1           0        0.224133    0.020718   -1.895987
     31          1           0       -2.043919    0.217021   -1.534629
     32          6           0       -3.130773    0.297287    1.786609
     33          1           0       -2.174476    0.251564    2.316821
     34          1           0       -3.778029    0.994586    2.330029
     35          1           0       -3.599667   -0.689229    1.847186
     36          1           0       -0.591817   -0.756146    0.827208
 ---------------------------------------------------------------------

 SCF Done:  E(RmPW1PW91) =  -836.466671738     A.U. after   12 cycles

      1  C    Isotropic =   175.8383   Anisotropy =    18.9257

      2  C    Isotropic =   161.3470   Anisotropy =    23.5236

      3  C    Isotropic =   119.2793   Anisotropy =    27.9088

      4  C    Isotropic =   150.9284   Anisotropy =     4.4691

      5  C    Isotropic =   115.4390   Anisotropy =    38.8427

      6  O    Isotropic =   308.2228   Anisotropy =    94.5691

      7  N    Isotropic =   194.7626   Anisotropy =    46.6197

      8  C    Isotropic =   147.2369   Anisotropy =    51.7726

      9  C    Isotropic =    54.1254   Anisotropy =   186.7839

     10  C    Isotropic =    70.3108   Anisotropy =   149.5690

     11  C    Isotropic =    19.9260   Anisotropy =   100.0433

     12  C    Isotropic =    66.5616   Anisotropy =   140.3605

     13  C    Isotropic =    19.4569   Anisotropy =    98.1268

     14  C    Isotropic =    70.9744   Anisotropy =   148.4407

     15  H    Isotropic =    24.5128   Anisotropy =     3.2276

     16  H    Isotropic =    25.1809   Anisotropy =     4.9167

     17  H    Isotropic =    25.2099   Anisotropy =     5.0471

     18  F    Isotropic =   300.7006   Anisotropy =   127.9338

     19  F    Isotropic =   306.7512   Anisotropy =   127.7775

     20  H    Isotropic =    31.0022   Anisotropy =    11.2843

     21  H    Isotropic =    31.1536   Anisotropy =     7.4039

     22  H    Isotropic =    31.4581   Anisotropy =     9.2539

     23  H    Isotropic =    30.8545   Anisotropy =     4.7327

     24  H    Isotropic =    29.8290   Anisotropy =     5.9772

     25  H    Isotropic =    30.5391   Anisotropy =     6.8684

     26  H    Isotropic =    28.4646   Anisotropy =     8.2714

     27  H    Isotropic =    27.9480   Anisotropy =     6.1672

     28  H    Isotropic =    28.1690   Anisotropy =    25.2278

     29  H    Isotropic =    28.0607   Anisotropy =     5.2406

     30  H    Isotropic =    28.6275   Anisotropy =     7.0940

     31  H    Isotropic =    29.1792   Anisotropy =     2.0752

     32  C    Isotropic =   178.0077   Anisotropy =    16.8552

     33  H    Isotropic =    30.9672   Anisotropy =     5.5602

     34  H    Isotropic =    31.3361   Anisotropy =    11.5434

     35  H    Isotropic =    31.2645   Anisotropy =     7.6953

     36  H    Isotropic =    31.3582   Anisotropy =     8.0176

 The electronic state is 1-A.
 Alpha  occ. eigenvalues --  -24.80791 -24.80376 -19.17616 -14.39614 -10.33953
 Alpha  occ. eigenvalues --  -10.33900 -10.27394 -10.26919 -10.26601 -10.26191
 Alpha  occ. eigenvalues --  -10.26089 -10.25323 -10.25261 -10.23588 -10.23034
 Alpha  occ. eigenvalues --  -10.22059 -10.21656  -1.28032  -1.27642  -1.02369
 Alpha  occ. eigenvalues --   -0.95302  -0.90649  -0.83374  -0.80212  -0.78747
 Alpha  occ. eigenvalues --   -0.78225  -0.72093  -0.69542  -0.67406  -0.66172
 Alpha  occ. eigenvalues --   -0.64101  -0.62849  -0.59296  -0.57793  -0.55929
 Alpha  occ. eigenvalues --   -0.52370  -0.52090  -0.51654  -0.50685  -0.49771
 Alpha  occ. eigenvalues --   -0.49618  -0.48523  -0.47723  -0.47106  -0.46602
 Alpha  occ. eigenvalues --   -0.44227  -0.43272  -0.42862  -0.41620  -0.41564
 Alpha  occ. eigenvalues --   -0.40896  -0.39874  -0.38537  -0.38076  -0.37856
 Alpha  occ. eigenvalues --   -0.37795  -0.37089  -0.36411  -0.34405  -0.33075
 Alpha  occ. eigenvalues --   -0.32616  -0.27705  -0.26879  -0.26429  -0.24870
 Alpha virt. eigenvalues --   -0.02198  -0.01040   0.04952   0.05689   0.06393
 Alpha virt. eigenvalues --    0.07242   0.07479   0.09990   0.10571   0.11173
 Alpha virt. eigenvalues --    0.11487   0.11674   0.12375   0.13163   0.13443

 Mulliken charges:
               1
     1  C   -0.667491
     2  C   -0.455100
     3  C   -0.113726
     4  C   -0.319865
     5  C   -0.182263
     6  O   -0.619440
     7  N   -0.600120
     8  C   -0.359353
     9  C   -0.191796
    10  C   -0.285440
    11  C    0.334883
    12  C   -0.161449
    13  C    0.347310
    14  C   -0.281144
    15  H    0.234480
    16  H    0.236127
    17  H    0.235537
    18  F   -0.234876
    19  F   -0.237422
    20  H    0.228391
    21  H    0.231914
    22  H    0.226056
    23  H    0.226209
    24  H    0.235886
    25  H    0.235034
    26  H    0.216213
    27  H    0.199567
    28  H    0.409481
    29  H    0.240932
    30  H    0.255813
    31  H    0.241313
    32  C   -0.659748
    33  H    0.226988
    34  H    0.230073
    35  H    0.231036
    36  H    0.345993
 Sum of Mulliken charges =   0.00000

 Dipole moment (field-independent basis, Debye):
    X=              0.8255    Y=             -3.3720    Z=             -1.2416  Tot=              3.6869
 Quadrupole moment (field-independent basis, Debye-Ang):
   XX=            -83.7673   YY=           -111.4071   ZZ=           -103.0873
   XY=              3.6652   XZ=              6.2783   YZ=             -4.3008

 Normal termination of Gaussian 09 at Mon Mar  4 11:28:56 2019.
