 Gaussian 09, Revision D.01,
 Gaussian 09:  ES64L-G09RevD.01 24-Apr-2013

 -------------------------------------------------------
 # mPW1PW91/6-311g(d) nmr=giao scrf=(solvent=chloroform)
 -------------------------------------------------------

 ------------
 AT3_1ginp008
 ------------
 Symbolic Z-matrix:
 Charge =  0 Multiplicity = 1

                         Standard orientation:
 ---------------------------------------------------------------------
 Center     Atomic      Atomic             Coordinates (Angstroms)
 Number     Number       Type             X           Y           Z
 ---------------------------------------------------------------------
      1          6           0       -0.078479   -1.679637    2.138742
      2          6           0       -1.457905   -1.184738    1.718479
      3          6           0       -1.416603   -0.039191    0.675493
      4          6           0       -2.827394    0.622728    0.549336
      5          6           0       -3.904490   -0.306665   -0.039616
      6          8           0       -3.621882   -0.672035   -1.384257
      7          7           0       -0.931982   -0.547664   -0.622587
      8          6           0        0.057230    0.324833   -1.275052
      9          6           0        4.002350    0.160869    0.482578
     10          6           0        3.210586    1.297039    0.640510
     11          6           0        1.938919    1.341873    0.069859
     12          6           0        1.428062    0.268733   -0.661852
     13          6           0        2.239082   -0.858075   -0.809474
     14          6           0        3.512957   -0.921402   -0.246313
     15          1           0        4.994655    0.119413    0.924573
     16          1           0        3.573814    2.151166    1.204586
     17          1           0        4.113493   -1.816331   -0.380487
     18          9           0        1.199460    2.447011    0.241641
     19          9           0        1.787987   -1.917060   -1.497144
     20          1           0        0.544132   -0.853556    2.496223
     21          1           0       -0.175024   -2.405142    2.953091
     22          1           0        0.441810   -2.178188    1.316754
     23          1           0       -2.034068   -2.036794    1.338634
     24          1           0       -1.974991   -0.831943    2.619505
     25          1           0       -3.153153    0.885249    1.565415
     26          1           0       -4.880215    0.190813   -0.031198
     27          1           0       -4.007035   -1.222638    0.549209
     28          1           0       -2.647755   -0.788436   -1.430939
     29          1           0        0.143201    0.005556   -2.321509
     30          1           0       -0.301344    1.357851   -1.327992
     31          1           0       -0.733913    0.719715    1.077884
     32          6           0       -2.780159    1.936472   -0.241174
     33          1           0       -2.567410    1.775418   -1.302142
     34          1           0       -3.743905    2.453652   -0.176350
     35          1           0       -2.017907    2.608917    0.166041
     36          1           0       -0.507414   -1.471389   -0.518711
 ---------------------------------------------------------------------

 SCF Done:  E(RmPW1PW91) =  -836.464885874     A.U. after   12 cycles

      1  C    Isotropic =   175.4612   Anisotropy =    20.0916

      2  C    Isotropic =   157.1887   Anisotropy =    27.4695

      3  C    Isotropic =   122.5308   Anisotropy =     8.1148

      4  C    Isotropic =   144.6194   Anisotropy =    11.4960

      5  C    Isotropic =   121.1104   Anisotropy =    53.9435

      6  O    Isotropic =   314.3812   Anisotropy =   101.3023

      7  N    Isotropic =   200.8609   Anisotropy =    41.3231

      8  C    Isotropic =   145.9646   Anisotropy =    54.1179

      9  C    Isotropic =    54.1618   Anisotropy =   186.5955

     10  C    Isotropic =    70.8764   Anisotropy =   149.2961

     11  C    Isotropic =    20.2838   Anisotropy =   101.3929

     12  C    Isotropic =    66.5739   Anisotropy =   143.7345

     13  C    Isotropic =    19.1451   Anisotropy =    99.2707

     14  C    Isotropic =    70.0970   Anisotropy =   150.0425

     15  H    Isotropic =    24.5287   Anisotropy =     3.0206

     16  H    Isotropic =    25.1533   Anisotropy =     4.9463

     17  H    Isotropic =    25.1372   Anisotropy =     4.8775

     18  F    Isotropic =   302.2205   Anisotropy =   121.2806

     19  F    Isotropic =   304.3306   Anisotropy =   142.0500

     20  H    Isotropic =    32.2772   Anisotropy =     6.4990

     21  H    Isotropic =    31.2944   Anisotropy =    11.5555

     22  H    Isotropic =    31.7581   Anisotropy =     6.2987

     23  H    Isotropic =    30.5110   Anisotropy =     6.7772

     24  H    Isotropic =    30.8940   Anisotropy =     8.6389

     25  H    Isotropic =    30.8509   Anisotropy =     7.1591

     26  H    Isotropic =    28.6050   Anisotropy =     8.5744

     27  H    Isotropic =    27.8741   Anisotropy =     5.2853

     28  H    Isotropic =    27.8110   Anisotropy =    24.9509

     29  H    Isotropic =    28.2210   Anisotropy =     7.6716

     30  H    Isotropic =    28.2345   Anisotropy =     4.8673

     31  H    Isotropic =    29.5817   Anisotropy =     3.9046

     32  C    Isotropic =   169.1055   Anisotropy =    26.0013

     33  H    Isotropic =    30.0229   Anisotropy =     4.0195

     34  H    Isotropic =    30.9786   Anisotropy =    11.4286

     35  H    Isotropic =    30.9350   Anisotropy =     7.4249

     36  H    Isotropic =    30.9873   Anisotropy =     9.8026

 The electronic state is 1-A.
 Alpha  occ. eigenvalues --  -24.81061 -24.80737 -19.17737 -14.39851 -10.34137
 Alpha  occ. eigenvalues --  -10.34079 -10.27463 -10.26842 -10.26643 -10.26269
 Alpha  occ. eigenvalues --  -10.26168 -10.25516 -10.25482 -10.23490 -10.23263
 Alpha  occ. eigenvalues --  -10.22186 -10.21445  -1.28305  -1.27992  -1.02461
 Alpha  occ. eigenvalues --   -0.95304  -0.90769  -0.83170  -0.80319  -0.78949
 Alpha  occ. eigenvalues --   -0.78696  -0.72163  -0.69217  -0.68128  -0.66373
 Alpha  occ. eigenvalues --   -0.64252  -0.61835  -0.59503  -0.58637  -0.55939
 Alpha  occ. eigenvalues --   -0.52977  -0.52308  -0.52238  -0.51012  -0.50140
 Alpha  occ. eigenvalues --   -0.49440  -0.47830  -0.47438  -0.46937  -0.46295
 Alpha  occ. eigenvalues --   -0.45486  -0.43605  -0.42336  -0.41940  -0.41738
 Alpha  occ. eigenvalues --   -0.40930  -0.40304  -0.39547  -0.38394  -0.38055
 Alpha  occ. eigenvalues --   -0.37650  -0.36587  -0.35764  -0.34030  -0.33089
 Alpha  occ. eigenvalues --   -0.32496  -0.28124  -0.27103  -0.26393  -0.25167
 Alpha virt. eigenvalues --   -0.02470  -0.01278   0.04794   0.05687   0.06800
 Alpha virt. eigenvalues --    0.07396   0.08132   0.09963   0.10169   0.10478
 Alpha virt. eigenvalues --    0.10723   0.11549   0.11740   0.13151   0.13716

 Mulliken charges:
               1
     1  C   -0.659717
     2  C   -0.484749
     3  C   -0.103468
     4  C   -0.295126
     5  C   -0.185489
     6  O   -0.621701
     7  N   -0.609646
     8  C   -0.407809
     9  C   -0.189131
    10  C   -0.281168
    11  C    0.332736
    12  C   -0.151455
    13  C    0.337754
    14  C   -0.280892
    15  H    0.235112
    16  H    0.235900
    17  H    0.236270
    18  F   -0.235399
    19  F   -0.236677
    20  H    0.228274
    21  H    0.232096
    22  H    0.223660
    23  H    0.237237
    24  H    0.234110
    25  H    0.224120
    26  H    0.215375
    27  H    0.209170
    28  H    0.413962
    29  H    0.258838
    30  H    0.280392
    31  H    0.244052
    32  C   -0.670541
    33  H    0.229262
    34  H    0.228654
    35  H    0.225924
    36  H    0.350071
 Sum of Mulliken charges =   0.00000

 Dipole moment (field-independent basis, Debye):
    X=              4.7807    Y=              0.2114    Z=              3.1976  Tot=              5.7554
 Quadrupole moment (field-independent basis, Debye-Ang):
   XX=           -103.3682   YY=           -102.6814   ZZ=           -104.3762
   XY=             -3.7684   XZ=             -7.3878   YZ=             -1.8502

 Normal termination of Gaussian 09 at Mon Mar  4 11:30:02 2019.
