 Gaussian 09, Revision D.01,
 Gaussian 09:  ES64L-G09RevD.01 24-Apr-2013

 -------------------------------------------------------
 # mPW1PW91/6-311g(d) nmr=giao scrf=(solvent=chloroform)
 -------------------------------------------------------

 ------------
 AT3_1ginp006
 ------------
 Symbolic Z-matrix:
 Charge =  0 Multiplicity = 1

                         Standard orientation:
 ---------------------------------------------------------------------
 Center     Atomic      Atomic             Coordinates (Angstroms)
 Number     Number       Type             X           Y           Z
 ---------------------------------------------------------------------
      1          6           0       -3.388144   -1.643278   -1.171355
      2          6           0       -2.272077   -1.676327   -0.134803
      3          6           0       -1.535358   -0.333789    0.097906
      4          6           0       -2.467742    0.814946    0.609992
      5          6           0       -1.666868    2.088564    0.956179
      6          8           0       -1.133095    2.703220   -0.209086
      7          7           0       -0.832094    0.137079   -1.114849
      8          6           0        0.359274   -0.637191   -1.482098
      9          6           0        3.701104    0.041559    1.168886
     10          6           0        2.974036   -1.145076    1.246690
     11          6           0        1.899566   -1.357850    0.383574
     12          6           0        1.526029   -0.406603   -0.566855
     13          6           0        2.269857    0.773060   -0.630728
     14          6           0        3.346629    1.003687    0.224717
     15          1           0        4.538660    0.216209    1.839290
     16          1           0        3.234113   -1.906893    1.975526
     17          1           0        3.899686    1.935081    0.146228
     18          9           0        1.213694   -2.505851    0.484736
     19          9           0        1.961165    1.709997   -1.538658
     20          1           0       -3.009688   -1.390319   -2.165713
     21          1           0       -3.856973   -2.630559   -1.241102
     22          1           0       -4.169383   -0.926925   -0.903082
     23          1           0       -2.687009   -2.032884    0.815166
     24          1           0       -1.552633   -2.449400   -0.428496
     25          1           0       -3.176946    1.074001   -0.187387
     26          1           0       -0.840871    1.864761    1.640106
     27          1           0       -2.309454    2.831194    1.440208
     28          1           0       -0.703811    1.978144   -0.714764
     29          1           0        0.137079   -1.704879   -1.581838
     30          1           0        0.663416   -0.323637   -2.489396
     31          1           0       -0.800201   -0.505600    0.893937
     32          6           0       -3.268039    0.399372    1.850578
     33          1           0       -2.606126    0.047670    2.649065
     34          1           0       -3.849019    1.242349    2.240683
     35          1           0       -3.983931   -0.394975    1.620740
     36          1           0       -1.480828    0.127605   -1.903323
 ---------------------------------------------------------------------

 SCF Done:  E(RmPW1PW91) =  -836.466387956     A.U. after   12 cycles

      1  C    Isotropic =   181.9032   Anisotropy =    12.1316

      2  C    Isotropic =   167.6939   Anisotropy =    21.6378

      3  C    Isotropic =   124.7963   Anisotropy =    30.7448

      4  C    Isotropic =   148.1896   Anisotropy =    15.0843

      5  C    Isotropic =   114.3858   Anisotropy =    54.2069

      6  O    Isotropic =   285.8625   Anisotropy =    75.8559

      7  N    Isotropic =   206.5863   Anisotropy =    55.5742

      8  C    Isotropic =   151.6687   Anisotropy =    48.8116

      9  C    Isotropic =    53.6318   Anisotropy =   187.3239

     10  C    Isotropic =    71.7179   Anisotropy =   147.7274

     11  C    Isotropic =    19.0263   Anisotropy =   101.7057

     12  C    Isotropic =    68.5639   Anisotropy =   139.9782

     13  C    Isotropic =    18.4496   Anisotropy =   101.5555

     14  C    Isotropic =    69.8825   Anisotropy =   149.8951

     15  H    Isotropic =    24.4660   Anisotropy =     3.0938

     16  H    Isotropic =    25.1997   Anisotropy =     5.0229

     17  H    Isotropic =    25.0677   Anisotropy =     5.0604

     18  F    Isotropic =   300.9420   Anisotropy =   126.7923

     19  F    Isotropic =   300.7005   Anisotropy =   143.8407

     20  H    Isotropic =    31.3730   Anisotropy =     7.7559

     21  H    Isotropic =    31.1507   Anisotropy =    11.7339

     22  H    Isotropic =    31.3474   Anisotropy =     8.3155

     23  H    Isotropic =    30.6545   Anisotropy =     7.3078

     24  H    Isotropic =    29.9230   Anisotropy =     7.6996

     25  H    Isotropic =    30.4306   Anisotropy =     4.4717

     26  H    Isotropic =    28.7935   Anisotropy =     3.1496

     27  H    Isotropic =    28.7060   Anisotropy =     6.8104

     28  H    Isotropic =    27.6508   Anisotropy =    22.9428

     29  H    Isotropic =    28.1810   Anisotropy =     6.3246

     30  H    Isotropic =    28.4619   Anisotropy =     7.9735

     31  H    Isotropic =    29.6849   Anisotropy =     5.9881

     32  C    Isotropic =   172.4468   Anisotropy =    26.4731

     33  H    Isotropic =    31.8803   Anisotropy =     8.1349

     34  H    Isotropic =    31.5444   Anisotropy =    11.0277

     35  H    Isotropic =    31.1697   Anisotropy =     8.1661

     36  H    Isotropic =    30.7899   Anisotropy =    10.7794

 The electronic state is 1-A.
 Alpha  occ. eigenvalues --  -24.80585 -24.80389 -19.17370 -14.39609 -10.33960
 Alpha  occ. eigenvalues --  -10.33910 -10.27408 -10.26836 -10.26619 -10.26161
 Alpha  occ. eigenvalues --  -10.26120 -10.25303 -10.25258 -10.23614 -10.22852
 Alpha  occ. eigenvalues --  -10.22207 -10.22007  -1.27841  -1.27597  -1.02167
 Alpha  occ. eigenvalues --   -0.95089  -0.90628  -0.83241  -0.80500  -0.78727
 Alpha  occ. eigenvalues --   -0.78260  -0.72374  -0.68735  -0.68173  -0.66120
 Alpha  occ. eigenvalues --   -0.64234  -0.61979  -0.59100  -0.58125  -0.56001
 Alpha  occ. eigenvalues --   -0.52566  -0.52047  -0.51750  -0.51016  -0.50032
 Alpha  occ. eigenvalues --   -0.49600  -0.48794  -0.47056  -0.46814  -0.45297
 Alpha  occ. eigenvalues --   -0.44414  -0.43815  -0.42788  -0.41939  -0.41614
 Alpha  occ. eigenvalues --   -0.41245  -0.39710  -0.39271  -0.38209  -0.37863
 Alpha  occ. eigenvalues --   -0.36928  -0.36535  -0.35917  -0.34985  -0.33187
 Alpha  occ. eigenvalues --   -0.32589  -0.27782  -0.26866  -0.26353  -0.24773
 Alpha virt. eigenvalues --   -0.02339  -0.01025   0.04769   0.05803   0.06184
 Alpha virt. eigenvalues --    0.07314   0.08247   0.10138   0.10285   0.10847
 Alpha virt. eigenvalues --    0.11271   0.11380   0.12372   0.13081   0.13290

 Mulliken charges:
               1
     1  C   -0.671743
     2  C   -0.465188
     3  C   -0.107101
     4  C   -0.310681
     5  C   -0.170424
     6  O   -0.621974
     7  N   -0.610519
     8  C   -0.376267
     9  C   -0.189477
    10  C   -0.288761
    11  C    0.341231
    12  C   -0.163731
    13  C    0.357223
    14  C   -0.283531
    15  H    0.234680
    16  H    0.235236
    17  H    0.237068
    18  F   -0.236472
    19  F   -0.232161
    20  H    0.216939
    21  H    0.234140
    22  H    0.233941
    23  H    0.238531
    24  H    0.234873
    25  H    0.222158
    26  H    0.195065
    27  H    0.213519
    28  H    0.411718
    29  H    0.249948
    30  H    0.253490
    31  H    0.252731
    32  C   -0.673933
    33  H    0.225649
    34  H    0.231492
    35  H    0.237153
    36  H    0.345179
 Sum of Mulliken charges =   0.00000

 Dipole moment (field-independent basis, Debye):
    X=              0.8280    Y=             -3.7456    Z=              0.7192  Tot=              3.9028
 Quadrupole moment (field-independent basis, Debye-Ang):
   XX=            -89.5729   YY=           -115.6537   ZZ=            -96.1826
   XY=              5.2622   XZ=              5.5446   YZ=              3.8163

 Normal termination of Gaussian 09 at Mon Mar  4 11:29:49 2019.
