 Gaussian 09, Revision D.01,
 Gaussian 09:  ES64L-G09RevD.01 24-Apr-2013

 -------------------------------------------------------
 # mPW1PW91/6-311g(d) nmr=giao scrf=(solvent=chloroform)
 -------------------------------------------------------

 ------------
 AT3_1ginp020
 ------------
 Symbolic Z-matrix:
 Charge =  0 Multiplicity = 1

                         Standard orientation:
 ---------------------------------------------------------------------
 Center     Atomic      Atomic             Coordinates (Angstroms)
 Number     Number       Type             X           Y           Z
 ---------------------------------------------------------------------
      1          6           0        1.933294   -2.221130    1.988483
      2          6           0        2.524981   -0.905529    1.488377
      3          6           0        1.870360   -0.398325    0.180974
      4          6           0        2.590512    0.856440   -0.411429
      5          6           0        4.057255    0.584968   -0.786527
      6          8           0        4.144536   -0.529016   -1.663077
      7          7           0        0.438618   -0.174855    0.457676
      8          6           0       -0.372165   -0.017549   -0.748166
      9          6           0       -4.568925    0.172336    0.263572
     10          6           0       -4.027265   -0.999619   -0.262319
     11          6           0       -2.672261   -1.054329   -0.590054
     12          6           0       -1.833607    0.045645   -0.406200
     13          6           0       -2.395657    1.209147    0.123640
     14          6           0       -3.747812    1.281709    0.456869
     15          1           0       -5.623438    0.219410    0.522369
     16          1           0       -4.649173   -1.875789   -0.419975
     17          1           0       -4.148973    2.203374    0.867357
     18          9           0       -2.186090   -2.193835   -1.102862
     19          9           0       -1.626544    2.290318    0.322370
     20          1           0        2.484998   -2.568694    2.868004
     21          1           0        0.884305   -2.109200    2.278922
     22          1           0        1.999672   -2.997449    1.219613
     23          1           0        2.433039   -0.156460    2.283793
     24          1           0        3.595483   -1.072153    1.330662
     25          1           0        2.083588    1.104651   -1.353066
     26          1           0        4.676230    0.391592    0.094768
     27          1           0        4.478451    1.453045   -1.305944
     28          1           0        5.084382   -0.648155   -1.884283
     29          1           0       -0.107516    0.897788   -1.289934
     30          1           0       -0.194517   -0.851733   -1.437633
     31          1           0        1.947427   -1.215203   -0.548897
     32          6           0        2.524128    2.096665    0.487019
     33          1           0        1.491487    2.394115    0.690911
     34          1           0        3.031456    1.932472    1.442584
     35          1           0        3.010644    2.948635   -0.001203
     36          1           0        0.312527    0.634954    1.061842
 ---------------------------------------------------------------------

 SCF Done:  E(RmPW1PW91) =  -836.457842976     A.U. after   12 cycles

      1  C    Isotropic =   174.2417   Anisotropy =    22.4424

      2  C    Isotropic =   164.3445   Anisotropy =    15.8298

      3  C    Isotropic =   125.2716   Anisotropy =    29.0545

      4  C    Isotropic =   152.8051   Anisotropy =    20.4891

      5  C    Isotropic =   119.6401   Anisotropy =    61.5522

      6  O    Isotropic =   308.3811   Anisotropy =   126.3121

      7  N    Isotropic =   210.8665   Anisotropy =    42.6301

      8  C    Isotropic =   148.1584   Anisotropy =    49.6120

      9  C    Isotropic =    55.0383   Anisotropy =   184.8419

     10  C    Isotropic =    70.4583   Anisotropy =   148.9662

     11  C    Isotropic =    19.7354   Anisotropy =   100.2292

     12  C    Isotropic =    65.1409   Anisotropy =   142.4365

     13  C    Isotropic =    19.4654   Anisotropy =    97.3904

     14  C    Isotropic =    71.2176   Anisotropy =   147.5903

     15  H    Isotropic =    24.5503   Anisotropy =     3.1832

     16  H    Isotropic =    25.1524   Anisotropy =     4.8747

     17  H    Isotropic =    25.2205   Anisotropy =     5.1727

     18  F    Isotropic =   300.5391   Anisotropy =   126.0621

     19  F    Isotropic =   307.3219   Anisotropy =   126.8079

     20  H    Isotropic =    31.1887   Anisotropy =    11.1569

     21  H    Isotropic =    30.6463   Anisotropy =     6.7280

     22  H    Isotropic =    31.3655   Anisotropy =     8.8420

     23  H    Isotropic =    31.1166   Anisotropy =     5.6339

     24  H    Isotropic =    30.5153   Anisotropy =     7.7241

     25  H    Isotropic =    29.4023   Anisotropy =     4.5127

     26  H    Isotropic =    28.4087   Anisotropy =     3.5809

     27  H    Isotropic =    28.2378   Anisotropy =     6.3346

     28  H    Isotropic =    31.4668   Anisotropy =    20.6600

     29  H    Isotropic =    28.0242   Anisotropy =     4.7572

     30  H    Isotropic =    28.7141   Anisotropy =     7.7759

     31  H    Isotropic =    28.9194   Anisotropy =     3.7732

     32  C    Isotropic =   178.5427   Anisotropy =    19.0067

     33  H    Isotropic =    31.0538   Anisotropy =     8.7770

     34  H    Isotropic =    31.6617   Anisotropy =     8.1679

     35  H    Isotropic =    31.4995   Anisotropy =    10.5886

     36  H    Isotropic =    31.6900   Anisotropy =     8.6564

 The electronic state is 1-A.
 Alpha  occ. eigenvalues --  -24.80530 -24.80008 -19.20546 -14.37446 -10.33608
 Alpha  occ. eigenvalues --  -10.33533 -10.27155 -10.26380 -10.26165 -10.25805
 Alpha  occ. eigenvalues --  -10.25686 -10.25061 -10.24994 -10.23546 -10.22152
 Alpha  occ. eigenvalues --  -10.22058 -10.20806  -1.27750  -1.27285  -1.04788
 Alpha  occ. eigenvalues --   -0.93880  -0.90222  -0.82820  -0.79955  -0.78444
 Alpha  occ. eigenvalues --   -0.77877  -0.71165  -0.69699  -0.67062  -0.65832
 Alpha  occ. eigenvalues --   -0.63592  -0.61877  -0.58879  -0.57333  -0.55387
 Alpha  occ. eigenvalues --   -0.52747  -0.51881  -0.51795  -0.51106  -0.49774
 Alpha  occ. eigenvalues --   -0.49390  -0.48753  -0.47024  -0.46709  -0.46256
 Alpha  occ. eigenvalues --   -0.43981  -0.42828  -0.42234  -0.41564  -0.41279
 Alpha  occ. eigenvalues --   -0.40925  -0.39012  -0.38602  -0.37787  -0.37691
 Alpha  occ. eigenvalues --   -0.37366  -0.36186  -0.34604  -0.34058  -0.33651
 Alpha  occ. eigenvalues --   -0.31999  -0.28348  -0.27256  -0.26595  -0.23335
 Alpha virt. eigenvalues --   -0.01792  -0.00749   0.04916   0.05267   0.06284
 Alpha virt. eigenvalues --    0.07420   0.07867   0.09487   0.10357   0.10689
 Alpha virt. eigenvalues --    0.11737   0.12059   0.12246   0.13312   0.13550

 Mulliken charges:
               1
     1  C   -0.641817
     2  C   -0.451478
     3  C   -0.123677
     4  C   -0.301295
     5  C   -0.179154
     6  O   -0.609901
     7  N   -0.530868
     8  C   -0.363212
     9  C   -0.194788
    10  C   -0.287958
    11  C    0.329189
    12  C   -0.154052
    13  C    0.342182
    14  C   -0.284045
    15  H    0.232412
    16  H    0.233660
    17  H    0.233521
    18  F   -0.234317
    19  F   -0.236834
    20  H    0.214558
    21  H    0.224933
    22  H    0.215442
    23  H    0.216945
    24  H    0.230951
    25  H    0.231451
    26  H    0.208537
    27  H    0.211007
    28  H    0.409563
    29  H    0.228551
    30  H    0.249049
    31  H    0.244416
    32  C   -0.680487
    33  H    0.227053
    34  H    0.231089
    35  H    0.232485
    36  H    0.326891
 Sum of Mulliken charges =   0.00000

 Dipole moment (field-independent basis, Debye):
    X=              0.8037    Y=              2.0173    Z=              0.2449  Tot=              2.1853
 Quadrupole moment (field-independent basis, Debye-Ang):
   XX=            -71.0538   YY=           -104.9979   ZZ=           -104.3425
   XY=              1.6075   XZ=             -4.1917   YZ=              0.8698

 Normal termination of Gaussian 09 at Mon Mar  4 11:28:45 2019.
