 Gaussian 09, Revision D.01,
 Gaussian 09:  ES64L-G09RevD.01 24-Apr-2013

 -------------------------------------------------------
 # mPW1PW91/6-311g(d) nmr=giao scrf=(solvent=chloroform)
 -------------------------------------------------------

 ------------
 AT3_1ginp007
 ------------
 Symbolic Z-matrix:
 Charge =  0 Multiplicity = 1

                         Standard orientation:
 ---------------------------------------------------------------------
 Center     Atomic      Atomic             Coordinates (Angstroms)
 Number     Number       Type             X           Y           Z
 ---------------------------------------------------------------------
      1          6           0        1.893902    2.934058    0.637143
      2          6           0        2.669022    1.813640   -0.044699
      3          6           0        2.127036    0.387755    0.228024
      4          6           0        2.996555   -0.694069   -0.499531
      5          6           0        2.438877   -2.118859   -0.305476
      6          8           0        1.244774   -2.309305   -1.054577
      7          7           0        0.727040    0.256688   -0.227174
      8          6           0       -0.231805    0.298218    0.884995
      9          6           0       -4.268092   -0.239618   -0.557208
     10          6           0       -3.619625   -1.275178    0.114002
     11          6           0       -2.317837   -1.093424    0.580365
     12          6           0       -1.637149    0.110046    0.391595
     13          6           0       -2.305338    1.134434   -0.282146
     14          6           0       -3.606834    0.971254   -0.754855
     15          1           0       -5.281632   -0.376874   -0.925173
     16          1           0       -4.116665   -2.226917    0.277534
     17          1           0       -4.093786    1.789507   -1.276854
     18          9           0       -1.725691   -2.103641    1.233049
     19          9           0       -1.688680    2.307738   -0.487892
     20          1           0        0.888395    3.042265    0.221048
     21          1           0        1.813958    2.757539    1.714227
     22          1           0        2.411061    3.888068    0.490339
     23          1           0        2.695014    2.005253   -1.124798
     24          1           0        3.701882    1.885998    0.311950
     25          1           0        2.989456   -0.472349   -1.575932
     26          1           0        2.226072   -2.322703    0.749495
     27          1           0        3.153249   -2.870979   -0.655303
     28          1           0        0.710953   -1.500002   -0.897687
     29          1           0        0.008948   -0.490433    1.608390
     30          1           0       -0.174406    1.246882    1.430050
     31          1           0        2.196658    0.195488    1.307483
     32          6           0        4.453317   -0.676676   -0.017844
     33          1           0        4.512000   -0.783792    1.070418
     34          1           0        5.023810   -1.496226   -0.468790
     35          1           0        4.961641    0.248780   -0.302415
     36          1           0        0.503085    1.011758   -0.879755
 ---------------------------------------------------------------------

 SCF Done:  E(RmPW1PW91) =  -836.463903109     A.U. after   12 cycles

      1  C    Isotropic =   175.2352   Anisotropy =    17.0829

      2  C    Isotropic =   155.4406   Anisotropy =    26.4090

      3  C    Isotropic =   117.3487   Anisotropy =    27.1904

      4  C    Isotropic =   141.3576   Anisotropy =    11.2410

      5  C    Isotropic =   114.5782   Anisotropy =    56.5082

      6  O    Isotropic =   290.5218   Anisotropy =    70.7322

      7  N    Isotropic =   201.0455   Anisotropy =    64.0303

      8  C    Isotropic =   144.1467   Anisotropy =    53.8996

      9  C    Isotropic =    53.9845   Anisotropy =   186.6348

     10  C    Isotropic =    70.0968   Anisotropy =   149.8729

     11  C    Isotropic =    20.2509   Anisotropy =    99.7309

     12  C    Isotropic =    67.2924   Anisotropy =   138.8391

     13  C    Isotropic =    19.0895   Anisotropy =    97.4492

     14  C    Isotropic =    70.8687   Anisotropy =   148.3551

     15  H    Isotropic =    24.5153   Anisotropy =     3.2285

     16  H    Isotropic =    25.1672   Anisotropy =     4.9854

     17  H    Isotropic =    25.1984   Anisotropy =     5.2152

     18  F    Isotropic =   299.2443   Anisotropy =   128.4662

     19  F    Isotropic =   306.3025   Anisotropy =   124.9703

     20  H    Isotropic =    30.5643   Anisotropy =     7.7856

     21  H    Isotropic =    31.0790   Anisotropy =     7.4622

     22  H    Isotropic =    30.8497   Anisotropy =    11.1640

     23  H    Isotropic =    30.8892   Anisotropy =     6.1522

     24  H    Isotropic =    30.1126   Anisotropy =     7.5010

     25  H    Isotropic =    30.5624   Anisotropy =     4.1573

     26  H    Isotropic =    28.0730   Anisotropy =     4.1370

     27  H    Isotropic =    28.4853   Anisotropy =     6.5840

     28  H    Isotropic =    27.4699   Anisotropy =    24.2442

     29  H    Isotropic =    28.3245   Anisotropy =     6.9903

     30  H    Isotropic =    28.0687   Anisotropy =     4.2968

     31  H    Isotropic =    29.7110   Anisotropy =     3.3475

     32  C    Isotropic =   171.1155   Anisotropy =    28.4358

     33  H    Isotropic =    31.7030   Anisotropy =     8.1784

     34  H    Isotropic =    31.4207   Anisotropy =    10.4420

     35  H    Isotropic =    31.0142   Anisotropy =     8.3928

     36  H    Isotropic =    31.2175   Anisotropy =     9.1934

 The electronic state is 1-A.
 Alpha  occ. eigenvalues --  -24.81050 -24.80393 -19.17298 -14.39681 -10.34075
 Alpha  occ. eigenvalues --  -10.33974 -10.27469 -10.27013 -10.26696 -10.26156
 Alpha  occ. eigenvalues --  -10.26111 -10.25408 -10.25316 -10.23397 -10.23205
 Alpha  occ. eigenvalues --  -10.22191 -10.21884  -1.28263  -1.27664  -1.02137
 Alpha  occ. eigenvalues --   -0.95341  -0.90730  -0.83387  -0.80351  -0.78826
 Alpha  occ. eigenvalues --   -0.78550  -0.72282  -0.68390  -0.68014  -0.66266
 Alpha  occ. eigenvalues --   -0.64205  -0.62065  -0.59661  -0.58792  -0.56254
 Alpha  occ. eigenvalues --   -0.52451  -0.52174  -0.52129  -0.50938  -0.49783
 Alpha  occ. eigenvalues --   -0.49281  -0.48880  -0.47371  -0.47198  -0.44991
 Alpha  occ. eigenvalues --   -0.44864  -0.43593  -0.42953  -0.42209  -0.41696
 Alpha  occ. eigenvalues --   -0.40474  -0.39748  -0.39373  -0.38893  -0.38063
 Alpha  occ. eigenvalues --   -0.37646  -0.36310  -0.35387  -0.35076  -0.33364
 Alpha  occ. eigenvalues --   -0.32713  -0.27840  -0.26950  -0.26165  -0.24863
 Alpha virt. eigenvalues --   -0.02299  -0.01115   0.05096   0.06003   0.06276
 Alpha virt. eigenvalues --    0.06989   0.07986   0.09877   0.10406   0.10782
 Alpha virt. eigenvalues --    0.10908   0.11676   0.12389   0.12991   0.13292

 Mulliken charges:
               1
     1  C   -0.672028
     2  C   -0.474443
     3  C   -0.080927
     4  C   -0.290219
     5  C   -0.167925
     6  O   -0.620903
     7  N   -0.615453
     8  C   -0.370260
     9  C   -0.191842
    10  C   -0.283990
    11  C    0.325393
    12  C   -0.161691
    13  C    0.346165
    14  C   -0.278940
    15  H    0.234903
    16  H    0.236767
    17  H    0.236284
    18  F   -0.232942
    19  F   -0.233805
    20  H    0.225748
    21  H    0.225843
    22  H    0.233726
    23  H    0.227489
    24  H    0.241255
    25  H    0.217864
    26  H    0.192473
    27  H    0.213493
    28  H    0.410253
    29  H    0.264175
    30  H    0.248901
    31  H    0.231240
    32  C   -0.677009
    33  H    0.223146
    34  H    0.230956
    35  H    0.235779
    36  H    0.350523
 Sum of Mulliken charges =   0.00000

 Dipole moment (field-independent basis, Debye):
    X=             -1.0117    Y=              3.6081    Z=              1.2477  Tot=              3.9495
 Quadrupole moment (field-independent basis, Debye-Ang):
   XX=            -83.4646   YY=           -110.6629   ZZ=           -103.7363
   XY=              4.7187   XZ=              5.9680   YZ=             -5.3308

 Normal termination of Gaussian 09 at Mon Mar  4 11:28:48 2019.
