 Gaussian 09, Revision D.01,
 Gaussian 09:  ES64L-G09RevD.01 24-Apr-2013

 -------------------------------------------------------
 # mPW1PW91/6-311g(d) nmr=giao scrf=(solvent=chloroform)
 -------------------------------------------------------

 ------------
 AT3_1ginp002
 ------------
 Symbolic Z-matrix:
 Charge =  0 Multiplicity = 1

                         Standard orientation:
 ---------------------------------------------------------------------
 Center     Atomic      Atomic             Coordinates (Angstroms)
 Number     Number       Type             X           Y           Z
 ---------------------------------------------------------------------
      1          6           0       -3.857263    1.762241   -1.221670
      2          6           0       -2.436107    1.548892   -0.714967
      3          6           0       -1.991927    0.065363   -0.664637
      4          6           0       -2.981205   -0.834521    0.148313
      5          6           0       -3.107124   -0.436348    1.629791
      6          8           0       -1.876732   -0.572618    2.328081
      7          7           0       -0.621150   -0.061068   -0.116340
      8          6           0        0.406743    0.578046   -0.948910
      9          6           0        4.350924   -0.332719    0.563282
     10          6           0        3.758112    0.896607    0.847893
     11          6           0        2.486484    1.186340    0.353421
     12          6           0        1.783477    0.270320   -0.430346
     13          6           0        2.394049   -0.955948   -0.700802
     14          6           0        3.664296   -1.262984   -0.215025
     15          1           0        5.340417   -0.564928    0.948670
     16          1           0        4.275406    1.633937    1.454744
     17          1           0        4.106802   -2.227769   -0.444343
     18          9           0        1.946203    2.379761    0.639017
     19          9           0        1.749707   -1.870243   -1.440988
     20          1           0       -4.601001    1.411321   -0.500773
     21          1           0       -4.039911    2.830020   -1.381803
     22          1           0       -4.017829    1.245594   -2.173023
     23          1           0       -1.778691    2.104650   -1.393359
     24          1           0       -2.331155    2.017824    0.270612
     25          1           0       -3.976378   -0.730937   -0.301338
     26          1           0       -3.844060   -1.072533    2.131481
     27          1           0       -3.449373    0.597021    1.737980
     28          1           0       -1.193935   -0.154169    1.759777
     29          1           0        0.334701    0.232976   -1.988101
     30          1           0        0.275372    1.664815   -0.965517
     31          1           0       -1.986622   -0.316825   -1.694903
     32          6           0       -2.631599   -2.326854    0.027574
     33          1           0       -1.705658   -2.586260    0.549539
     34          1           0       -3.430999   -2.938528    0.460558
     35          1           0       -2.526422   -2.617289   -1.022979
     36          1           0       -0.385112   -1.056757   -0.083264
 ---------------------------------------------------------------------

 SCF Done:  E(RmPW1PW91) =  -836.464707556     A.U. after   12 cycles

      1  C    Isotropic =   176.3036   Anisotropy =    16.8692

      2  C    Isotropic =   162.4922   Anisotropy =    18.9892

      3  C    Isotropic =   119.8619   Anisotropy =    23.9855

      4  C    Isotropic =   150.4551   Anisotropy =    11.1543

      5  C    Isotropic =   123.0297   Anisotropy =    55.8018

      6  O    Isotropic =   303.8962   Anisotropy =   117.3517

      7  N    Isotropic =   192.5465   Anisotropy =    41.7937

      8  C    Isotropic =   147.0643   Anisotropy =    51.3821

      9  C    Isotropic =    53.8274   Anisotropy =   187.1710

     10  C    Isotropic =    70.3509   Anisotropy =   149.3613

     11  C    Isotropic =    19.7843   Anisotropy =    99.7965

     12  C    Isotropic =    67.0732   Anisotropy =   139.3413

     13  C    Isotropic =    18.8437   Anisotropy =    99.1656

     14  C    Isotropic =    70.7923   Anisotropy =   148.4393

     15  H    Isotropic =    24.4836   Anisotropy =     3.2261

     16  H    Isotropic =    25.1646   Anisotropy =     4.9330

     17  H    Isotropic =    25.1868   Anisotropy =     5.0428

     18  F    Isotropic =   301.0739   Anisotropy =   128.7022

     19  F    Isotropic =   306.8416   Anisotropy =   129.4893

     20  H    Isotropic =    31.1799   Anisotropy =     7.5743

     21  H    Isotropic =    30.9493   Anisotropy =    11.2984

     22  H    Isotropic =    31.4394   Anisotropy =     9.3386

     23  H    Isotropic =    30.0437   Anisotropy =     6.4755

     24  H    Isotropic =    30.5531   Anisotropy =     5.9182

     25  H    Isotropic =    30.3620   Anisotropy =     6.9318

     26  H    Isotropic =    28.8475   Anisotropy =     8.5154

     27  H    Isotropic =    27.9910   Anisotropy =     5.4304

     28  H    Isotropic =    29.3493   Anisotropy =    23.1374

     29  H    Isotropic =    28.9234   Anisotropy =     6.3340

     30  H    Isotropic =    28.1893   Anisotropy =     6.1952

     31  H    Isotropic =    29.2080   Anisotropy =     3.7464

     32  C    Isotropic =   171.2929   Anisotropy =    28.5802

     33  H    Isotropic =    30.5169   Anisotropy =     5.4154

     34  H    Isotropic =    31.0012   Anisotropy =    11.3029

     35  H    Isotropic =    31.3886   Anisotropy =     8.7752

     36  H    Isotropic =    30.7088   Anisotropy =     9.0402

 The electronic state is 1-A.
 Alpha  occ. eigenvalues --  -24.80826 -24.80421 -19.18408 -14.39637 -10.34027
 Alpha  occ. eigenvalues --  -10.33979 -10.27313 -10.27005 -10.26718 -10.26531
 Alpha  occ. eigenvalues --  -10.26156 -10.25370 -10.25320 -10.23989 -10.23101
 Alpha  occ. eigenvalues --  -10.22101 -10.21962  -1.28072  -1.27685  -1.03011
 Alpha  occ. eigenvalues --   -0.95168  -0.90685  -0.83396  -0.80298  -0.78804
 Alpha  occ. eigenvalues --   -0.78599  -0.72124  -0.69539  -0.67749  -0.66221
 Alpha  occ. eigenvalues --   -0.64442  -0.62144  -0.59241  -0.57520  -0.56273
 Alpha  occ. eigenvalues --   -0.52563  -0.52142  -0.51865  -0.50763  -0.49860
 Alpha  occ. eigenvalues --   -0.49462  -0.49158  -0.47409  -0.47144  -0.46199
 Alpha  occ. eigenvalues --   -0.44984  -0.44118  -0.42879  -0.42204  -0.41647
 Alpha  occ. eigenvalues --   -0.40509  -0.39304  -0.38840  -0.38395  -0.38131
 Alpha  occ. eigenvalues --   -0.37720  -0.37372  -0.35741  -0.34331  -0.33255
 Alpha  occ. eigenvalues --   -0.32189  -0.27842  -0.27128  -0.26928  -0.25400
 Alpha virt. eigenvalues --   -0.02291  -0.01090   0.04848   0.05708   0.06379
 Alpha virt. eigenvalues --    0.07359   0.08291   0.10041   0.10200   0.10750
 Alpha virt. eigenvalues --    0.11236   0.12123   0.12401   0.13088   0.13319

 Mulliken charges:
               1
     1  C   -0.668390
     2  C   -0.452446
     3  C   -0.104694
     4  C   -0.332757
     5  C   -0.189409
     6  O   -0.615768
     7  N   -0.601598
     8  C   -0.358187
     9  C   -0.190720
    10  C   -0.284176
    11  C    0.344649
    12  C   -0.173928
    13  C    0.339280
    14  C   -0.282138
    15  H    0.234783
    16  H    0.236105
    17  H    0.236259
    18  F   -0.233537
    19  F   -0.236782
    20  H    0.230155
    21  H    0.230983
    22  H    0.226146
    23  H    0.236631
    24  H    0.235614
    25  H    0.244873
    26  H    0.219310
    27  H    0.214436
    28  H    0.401232
    29  H    0.230388
    30  H    0.261579
    31  H    0.220993
    32  C   -0.666704
    33  H    0.230512
    34  H    0.233447
    35  H    0.229284
    36  H    0.354573
 Sum of Mulliken charges =   0.00000

 Dipole moment (field-independent basis, Debye):
    X=              1.3612    Y=              0.1460    Z=             -3.0018  Tot=              3.2993
 Quadrupole moment (field-independent basis, Debye-Ang):
   XX=            -83.6380   YY=           -102.1158   ZZ=           -111.4249
   XY=             -3.2345   XZ=              8.7729   YZ=              1.0334

 Normal termination of Gaussian 09 at Mon Mar  4 11:28:44 2019.
