 Gaussian 09, Revision D.01,
 Gaussian 09:  ES64L-G09RevD.01 24-Apr-2013

 -------------------------------------------------------
 # mPW1PW91/6-311g(d) nmr=giao scrf=(solvent=chloroform)
 -------------------------------------------------------

 ------------
 AT3_2ginp010
 ------------
 Symbolic Z-matrix:
 Charge =  0 Multiplicity = 1

                         Standard orientation:
 ---------------------------------------------------------------------
 Center     Atomic      Atomic             Coordinates (Angstroms)
 Number     Number       Type             X           Y           Z
 ---------------------------------------------------------------------
      1          6           0       -1.211641    2.924445   -0.796206
      2          6           0       -0.803377    1.477473   -1.039635
      3          6           0       -1.377544    0.486523    0.000593
      4          6           0       -2.939468    0.481989    0.050355
      5          6           0       -3.469550   -0.455750    1.153695
      6          8           0       -3.271233   -1.827255    0.835764
      7          7           0       -0.879777   -0.878234   -0.270121
      8          6           0        0.222049   -1.302412    0.606251
      9          6           0        4.023159    0.584810   -0.193341
     10          6           0        3.499739   -0.346473   -1.088493
     11          6           0        2.271637   -0.949982   -0.821223
     12          6           0        1.541360   -0.645022    0.329055
     13          6           0        2.084132    0.289491    1.212300
     14          6           0        3.310877    0.903478    0.961702
     15          1           0        4.980188    1.059522   -0.394633
     16          1           0        4.038542   -0.607860   -1.994537
     17          1           0        3.701452    1.627111    1.671242
     18          9           0        1.786413   -1.836559   -1.702384
     19          9           0        1.419140    0.620282    2.328447
     20          1           0       -0.971863    3.233767    0.225907
     21          1           0       -0.673823    3.585180   -1.484006
     22          1           0       -2.281149    3.076893   -0.965820
     23          1           0       -1.093018    1.188626   -2.056844
     24          1           0        0.291014    1.442094   -1.017880
     25          1           0       -3.265987    1.490540    0.333981
     26          1           0       -4.544256   -0.302931    1.297840
     27          1           0       -2.975873   -0.249070    2.109177
     28          1           0       -2.390183   -1.870752    0.405489
     29          1           0       -0.068126   -1.182251    1.657513
     30          1           0        0.351531   -2.384660    0.477374
     31          1           0       -1.040224    0.813736    0.993630
     32          6           0       -3.596270    0.145818   -1.295108
     33          1           0       -3.269504   -0.823765   -1.683703
     34          1           0       -4.686494    0.113427   -1.191299
     35          1           0       -3.369571    0.906202   -2.048308
     36          1           0       -0.584956   -0.969968   -1.244617
 ---------------------------------------------------------------------

 SCF Done:  E(RmPW1PW91) =  -836.465067055     A.U. after   12 cycles

      1  C    Isotropic =   175.4232   Anisotropy =    20.2760

      2  C    Isotropic =   157.1388   Anisotropy =    33.0744

      3  C    Isotropic =   119.5931   Anisotropy =    30.5444

      4  C    Isotropic =   150.9808   Anisotropy =     8.3629

      5  C    Isotropic =   115.5976   Anisotropy =    39.7454

      6  O    Isotropic =   316.0474   Anisotropy =    84.6840

      7  N    Isotropic =   196.3285   Anisotropy =    31.4934

      8  C    Isotropic =   144.8706   Anisotropy =    54.8008

      9  C    Isotropic =    54.4004   Anisotropy =   186.4581

     10  C    Isotropic =    70.2713   Anisotropy =   149.4020

     11  C    Isotropic =    19.4652   Anisotropy =    98.4285

     12  C    Isotropic =    64.7674   Anisotropy =   144.3548

     13  C    Isotropic =    20.2804   Anisotropy =   101.1649

     14  C    Isotropic =    70.7425   Anisotropy =   149.7103

     15  H    Isotropic =    24.5141   Anisotropy =     3.0976

     16  H    Isotropic =    25.1872   Anisotropy =     4.7695

     17  H    Isotropic =    25.1578   Anisotropy =     4.8302

     18  F    Isotropic =   304.3850   Anisotropy =   140.6839

     19  F    Isotropic =   302.0939   Anisotropy =   122.4656

     20  H    Isotropic =    31.6727   Anisotropy =     8.0032

     21  H    Isotropic =    31.4368   Anisotropy =    10.9911

     22  H    Isotropic =    31.4034   Anisotropy =     8.3650

     23  H    Isotropic =    31.0252   Anisotropy =     4.0511

     24  H    Isotropic =    31.4510   Anisotropy =    11.4826

     25  H    Isotropic =    30.6882   Anisotropy =     6.4986

     26  H    Isotropic =    28.3415   Anisotropy =     8.1534

     27  H    Isotropic =    27.8795   Anisotropy =     5.8675

     28  H    Isotropic =    27.9303   Anisotropy =    23.5940

     29  H    Isotropic =    28.2307   Anisotropy =     5.6523

     30  H    Isotropic =    28.1895   Anisotropy =     7.7477

     31  H    Isotropic =    29.2221   Anisotropy =     4.9153

     32  C    Isotropic =   177.7797   Anisotropy =    17.2572

     33  H    Isotropic =    30.8190   Anisotropy =     5.8975

     34  H    Isotropic =    31.3432   Anisotropy =    11.5982

     35  H    Isotropic =    31.3476   Anisotropy =     7.7431

     36  H    Isotropic =    31.2268   Anisotropy =     9.4807

 The electronic state is 1-A.
 Alpha  occ. eigenvalues --  -24.80952 -24.80666 -19.17880 -14.39526 -10.34096
 Alpha  occ. eigenvalues --  -10.34022 -10.27521 -10.26786 -10.26585 -10.26241
 Alpha  occ. eigenvalues --  -10.26231 -10.25505 -10.25457 -10.23407 -10.22980
 Alpha  occ. eigenvalues --  -10.21977 -10.21472  -1.28205  -1.27937  -1.02587
 Alpha  occ. eigenvalues --   -0.95118  -0.90740  -0.83239  -0.80355  -0.78919
 Alpha  occ. eigenvalues --   -0.78131  -0.72183  -0.69498  -0.67598  -0.66314
 Alpha  occ. eigenvalues --   -0.64130  -0.62852  -0.59432  -0.57991  -0.55712
 Alpha  occ. eigenvalues --   -0.52802  -0.52271  -0.51900  -0.50874  -0.50029
 Alpha  occ. eigenvalues --   -0.49562  -0.48362  -0.47641  -0.47189  -0.46241
 Alpha  occ. eigenvalues --   -0.44952  -0.43520  -0.42335  -0.41836  -0.41428
 Alpha  occ. eigenvalues --   -0.40871  -0.39838  -0.38876  -0.38268  -0.37892
 Alpha  occ. eigenvalues --   -0.37721  -0.37028  -0.36381  -0.34163  -0.32991
 Alpha  occ. eigenvalues --   -0.32528  -0.27976  -0.27088  -0.26524  -0.24723
 Alpha virt. eigenvalues --   -0.02425  -0.01262   0.05116   0.05531   0.06525
 Alpha virt. eigenvalues --    0.07280   0.07577   0.09887   0.10154   0.10817
 Alpha virt. eigenvalues --    0.11221   0.11525   0.12147   0.13079   0.13215

 Mulliken charges:
               1
     1  C   -0.668293
     2  C   -0.474877
     3  C   -0.099050
     4  C   -0.322882
     5  C   -0.178199
     6  O   -0.619169
     7  N   -0.602652
     8  C   -0.408857
     9  C   -0.190885
    10  C   -0.282490
    11  C    0.341874
    12  C   -0.162907
    13  C    0.334708
    14  C   -0.282242
    15  H    0.234900
    16  H    0.236288
    17  H    0.235693
    18  F   -0.234318
    19  F   -0.234900
    20  H    0.226087
    21  H    0.227817
    22  H    0.231098
    23  H    0.228750
    24  H    0.248482
    25  H    0.232239
    26  H    0.216500
    27  H    0.198729
    28  H    0.415785
    29  H    0.270725
    30  H    0.259426
    31  H    0.243264
    32  C   -0.654139
    33  H    0.225427
    34  H    0.228406
    35  H    0.229198
    36  H    0.350461
 Sum of Mulliken charges =   0.00000

 Dipole moment (field-independent basis, Debye):
    X=              4.4686    Y=              3.2698    Z=             -1.3863  Tot=              5.7081
 Quadrupole moment (field-independent basis, Debye-Ang):
   XX=           -101.2065   YY=           -107.2817   ZZ=           -102.4594
   XY=             -7.0513   XZ=              0.7984   YZ=              2.0276

 Normal termination of Gaussian 09 at Mon Mar  4 11:29:45 2019.
