 Gaussian 09, Revision D.01,
 Gaussian 09:  ES64L-G09RevD.01 24-Apr-2013

 -------------------------------------------------------
 # mPW1PW91/6-311g(d) nmr=giao scrf=(solvent=chloroform)
 -------------------------------------------------------

 ------------
 AT3_1ginp012
 ------------
 Symbolic Z-matrix:
 Charge =  0 Multiplicity = 1

                         Standard orientation:
 ---------------------------------------------------------------------
 Center     Atomic      Atomic             Coordinates (Angstroms)
 Number     Number       Type             X           Y           Z
 ---------------------------------------------------------------------
      1          6           0       -3.548389    2.229518   -0.982616
      2          6           0       -2.168263    1.836074   -0.470894
      3          6           0       -1.806193    0.346927   -0.696765
      4          6           0       -2.874903   -0.635436   -0.122979
      5          6           0       -3.024501   -0.541612    1.402362
      6          8           0       -4.113221   -1.356894    1.830211
      7          7           0       -0.473772    0.051131   -0.129553
      8          6           0        0.627702    0.658730   -0.885576
      9          6           0        4.442755   -0.562733    0.736677
     10          6           0        3.925606    0.697159    1.034617
     11          6           0        2.694962    1.086862    0.505734
     12          6           0        1.959054    0.241802   -0.326092
     13          6           0        2.493667   -1.016713   -0.609266
     14          6           0        3.721955   -1.423220   -0.089409
     15          1           0        5.400344   -0.872125    1.147447
     16          1           0        4.470820    1.382105    1.677279
     17          1           0        4.105441   -2.409937   -0.331295
     18          9           0        2.229417    2.308079    0.805434
     19          9           0        1.816253   -1.865575   -1.396398
     20          1           0       -3.668534    3.316862   -0.934011
     21          1           0       -3.685376    1.920555   -2.023544
     22          1           0       -4.344817    1.788189   -0.376753
     23          1           0       -1.446590    2.472454   -0.995672
     24          1           0       -2.091017    2.097736    0.591063
     25          1           0       -3.845966   -0.389768   -0.571384
     26          1           0       -3.240817    0.481961    1.719764
     27          1           0       -2.120348   -0.884983    1.915502
     28          1           0       -4.153899   -1.282803    2.799148
     29          1           0        0.581739    0.362120   -1.941222
     30          1           0        0.564492    1.751319   -0.863943
     31          1           0       -1.771492    0.172854   -1.781316
     32          6           0       -2.606510   -2.090101   -0.548566
     33          1           0       -1.745685   -2.520174   -0.027205
     34          1           0       -3.472224   -2.723778   -0.326949
     35          1           0       -2.423910   -2.153432   -1.626436
     36          1           0       -0.322673   -0.957998   -0.149975
 ---------------------------------------------------------------------

 SCF Done:  E(RmPW1PW91) =  -836.456133824     A.U. after   12 cycles

      1  C    Isotropic =   176.4979   Anisotropy =    16.2790

      2  C    Isotropic =   162.1027   Anisotropy =    20.4671

      3  C    Isotropic =   120.0362   Anisotropy =    21.9498

      4  C    Isotropic =   150.1834   Anisotropy =    24.5027

      5  C    Isotropic =   122.9801   Anisotropy =    55.0093

      6  O    Isotropic =   308.8836   Anisotropy =   111.4937

      7  N    Isotropic =   200.5717   Anisotropy =    53.9096

      8  C    Isotropic =   146.7811   Anisotropy =    52.8561

      9  C    Isotropic =    54.5140   Anisotropy =   185.9911

     10  C    Isotropic =    70.5589   Anisotropy =   148.7701

     11  C    Isotropic =    19.7474   Anisotropy =    99.8023

     12  C    Isotropic =    66.1411   Anisotropy =   140.9205

     13  C    Isotropic =    18.8349   Anisotropy =    99.0557

     14  C    Isotropic =    70.9792   Anisotropy =   148.0857

     15  H    Isotropic =    24.5236   Anisotropy =     3.2119

     16  H    Isotropic =    25.2029   Anisotropy =     4.8566

     17  H    Isotropic =    25.1948   Anisotropy =     5.0676

     18  F    Isotropic =   300.7169   Anisotropy =   126.8484

     19  F    Isotropic =   306.5642   Anisotropy =   130.1482

     20  H    Isotropic =    30.9776   Anisotropy =    11.2500

     21  H    Isotropic =    31.3332   Anisotropy =     9.0645

     22  H    Isotropic =    30.9646   Anisotropy =     7.2532

     23  H    Isotropic =    30.1738   Anisotropy =     6.8114

     24  H    Isotropic =    30.8357   Anisotropy =     5.8536

     25  H    Isotropic =    29.8767   Anisotropy =     6.3827

     26  H    Isotropic =    28.1782   Anisotropy =     6.1474

     27  H    Isotropic =    28.6270   Anisotropy =     7.0823

     28  H    Isotropic =    31.5614   Anisotropy =    19.6484

     29  H    Isotropic =    28.7670   Anisotropy =     6.3996

     30  H    Isotropic =    28.3316   Anisotropy =     6.3714

     31  H    Isotropic =    29.3960   Anisotropy =     2.9882

     32  C    Isotropic =   170.4639   Anisotropy =    28.8236

     33  H    Isotropic =    31.3778   Anisotropy =     7.0822

     34  H    Isotropic =    30.3238   Anisotropy =     9.6037

     35  H    Isotropic =    31.3813   Anisotropy =     8.7705

     36  H    Isotropic =    31.2811   Anisotropy =     9.3399

 The electronic state is 1-A.
 Alpha  occ. eigenvalues --  -24.80613 -24.80229 -19.20195 -14.37875 -10.33802
 Alpha  occ. eigenvalues --  -10.33757 -10.26814 -10.26634 -10.26431 -10.26372
 Alpha  occ. eigenvalues --  -10.25995 -10.25218 -10.25173 -10.23852 -10.22537
 Alpha  occ. eigenvalues --  -10.21732 -10.21680  -1.27863  -1.27495  -1.04363
 Alpha  occ. eigenvalues --   -0.94182  -0.90429  -0.83144  -0.79905  -0.78625
 Alpha  occ. eigenvalues --   -0.78326  -0.71491  -0.69540  -0.67434  -0.66010
 Alpha  occ. eigenvalues --   -0.63939  -0.61849  -0.59048  -0.56492  -0.55863
 Alpha  occ. eigenvalues --   -0.53310  -0.51968  -0.51627  -0.51076  -0.49657
 Alpha  occ. eigenvalues --   -0.49278  -0.49043  -0.47390  -0.46931  -0.46173
 Alpha  occ. eigenvalues --   -0.44260  -0.43891  -0.42505  -0.41951  -0.41490
 Alpha  occ. eigenvalues --   -0.40457  -0.39136  -0.38841  -0.37948  -0.37830
 Alpha  occ. eigenvalues --   -0.37308  -0.36665  -0.35494  -0.33725  -0.32761
 Alpha  occ. eigenvalues --   -0.32422  -0.27957  -0.27547  -0.26772  -0.24218
 Alpha virt. eigenvalues --   -0.02049  -0.00921   0.05185   0.05481   0.06299
 Alpha virt. eigenvalues --    0.06748   0.08088   0.08878   0.10330   0.11075
 Alpha virt. eigenvalues --    0.11376   0.11621   0.12627   0.12898   0.13378

 Mulliken charges:
               1
     1  C   -0.671930
     2  C   -0.446232
     3  C   -0.093615
     4  C   -0.340696
     5  C   -0.154046
     6  O   -0.617529
     7  N   -0.552368
     8  C   -0.366227
     9  C   -0.192886
    10  C   -0.286256
    11  C    0.339196
    12  C   -0.163288
    13  C    0.336019
    14  C   -0.283956
    15  H    0.233340
    16  H    0.234409
    17  H    0.234893
    18  F   -0.234389
    19  F   -0.237060
    20  H    0.227626
    21  H    0.224499
    22  H    0.232436
    23  H    0.230701
    24  H    0.226694
    25  H    0.244996
    26  H    0.216583
    27  H    0.206786
    28  H    0.408160
    29  H    0.221465
    30  H    0.254936
    31  H    0.211974
    32  C   -0.667220
    33  H    0.218242
    34  H    0.242028
    35  H    0.228115
    36  H    0.334598
 Sum of Mulliken charges =   0.00000

 Dipole moment (field-independent basis, Debye):
    X=              2.0855    Y=              0.1584    Z=              0.7430  Tot=              2.2195
 Quadrupole moment (field-independent basis, Debye-Ang):
   XX=            -95.7540   YY=           -103.9309   ZZ=            -95.6684
   XY=             -8.0666   XZ=              1.0378   YZ=             -1.8796

 Normal termination of Gaussian 09 at Mon Mar  4 11:28:18 2019.
