 Gaussian 09, Revision D.01,
 Gaussian 09:  ES64L-G09RevD.01 24-Apr-2013

 -------------------------------------------------------
 # mPW1PW91/6-311g(d) nmr=giao scrf=(solvent=chloroform)
 -------------------------------------------------------

 ------------
 AT3_1ginp013
 ------------
 Symbolic Z-matrix:
 Charge =  0 Multiplicity = 1

                         Standard orientation:
 ---------------------------------------------------------------------
 Center     Atomic      Atomic             Coordinates (Angstroms)
 Number     Number       Type             X           Y           Z
 ---------------------------------------------------------------------
      1          6           0       -1.662191    2.799514    1.555860
      2          6           0       -2.377737    1.479985    1.277298
      3          6           0       -1.781163    0.701513    0.079764
      4          6           0       -2.626138   -0.548590   -0.313851
      5          6           0       -4.037503   -0.148722   -0.776519
      6          8           0       -4.671756   -1.260924   -1.399659
      7          7           0       -0.378522    0.392552    0.401477
      8          6           0        0.395350   -0.107299   -0.733489
      9          6           0        4.589946   -0.331504    0.277823
     10          6           0        4.114071    0.715196   -0.510496
     11          6           0        2.759114    0.780515   -0.836166
     12          6           0        1.855734   -0.185766   -0.391812
     13          6           0        2.352453   -1.224257    0.398618
     14          6           0        3.703548   -1.305500    0.733970
     15          1           0        5.644232   -0.386326    0.536145
     16          1           0        4.787747    1.484909   -0.875138
     17          1           0        4.052901   -2.127720    1.351159
     18          9           0        2.335507    1.795346   -1.603570
     19          9           0        1.519811   -2.172677    0.853235
     20          1           0       -2.172788    3.339119    2.360126
     21          1           0       -0.626258    2.640110    1.870043
     22          1           0       -1.660984    3.439222    0.667609
     23          1           0       -2.351005    0.869375    2.187735
     24          1           0       -3.429391    1.715883    1.084032
     25          1           0       -2.148177   -1.034092   -1.174696
     26          1           0       -3.989181    0.662845   -1.509788
     27          1           0       -4.664585    0.167444    0.062538
     28          1           0       -5.557054   -0.968040   -1.676317
     29          1           0        0.057817   -1.105728   -1.034968
     30          1           0        0.259765    0.545119   -1.604607
     31          1           0       -1.785367    1.388708   -0.777660
     32          6           0       -2.711404   -1.612946    0.789342
     33          1           0       -3.232584   -1.236042    1.674760
     34          1           0       -3.257840   -2.494660    0.437237
     35          1           0       -1.718597   -1.956130    1.094826
     36          1           0       -0.327291   -0.281309    1.164857
 ---------------------------------------------------------------------

 SCF Done:  E(RmPW1PW91) =  -836.457705879     A.U. after   12 cycles

      1  C    Isotropic =   174.1565   Anisotropy =    22.6536

      2  C    Isotropic =   161.8853   Anisotropy =    17.9109

      3  C    Isotropic =   121.8740   Anisotropy =    21.5365

      4  C    Isotropic =   151.1191   Anisotropy =    20.5151

      5  C    Isotropic =   117.9150   Anisotropy =    48.7321

      6  O    Isotropic =   305.0012   Anisotropy =   115.5382

      7  N    Isotropic =   209.6700   Anisotropy =    40.8700

      8  C    Isotropic =   148.2434   Anisotropy =    48.9554

      9  C    Isotropic =    55.0215   Anisotropy =   184.9801

     10  C    Isotropic =    70.6360   Anisotropy =   148.7632

     11  C    Isotropic =    19.8683   Anisotropy =    99.8932

     12  C    Isotropic =    65.2671   Anisotropy =   142.0450

     13  C    Isotropic =    19.4182   Anisotropy =    97.6380

     14  C    Isotropic =    71.1130   Anisotropy =   147.8271

     15  H    Isotropic =    24.5535   Anisotropy =     3.1727

     16  H    Isotropic =    25.1735   Anisotropy =     4.8443

     17  H    Isotropic =    25.2005   Anisotropy =     5.1547

     18  F    Isotropic =   300.6265   Anisotropy =   125.3072

     19  F    Isotropic =   306.0958   Anisotropy =   127.5520

     20  H    Isotropic =    31.2758   Anisotropy =    11.0485

     21  H    Isotropic =    30.6979   Anisotropy =     6.6547

     22  H    Isotropic =    31.4830   Anisotropy =     8.8750

     23  H    Isotropic =    30.9914   Anisotropy =     5.1995

     24  H    Isotropic =    31.1096   Anisotropy =     7.6970

     25  H    Isotropic =    29.6070   Anisotropy =     4.5069

     26  H    Isotropic =    28.3904   Anisotropy =     4.5979

     27  H    Isotropic =    28.5162   Anisotropy =     5.6396

     28  H    Isotropic =    31.3362   Anisotropy =    20.1571

     29  H    Isotropic =    28.0104   Anisotropy =     4.6193

     30  H    Isotropic =    28.7765   Anisotropy =     7.8773

     31  H    Isotropic =    29.5014   Anisotropy =     3.5933

     32  C    Isotropic =   177.9392   Anisotropy =    20.5104

     33  H    Isotropic =    31.6421   Anisotropy =     8.5111

     34  H    Isotropic =    30.6112   Anisotropy =     9.3453

     35  H    Isotropic =    31.1798   Anisotropy =     8.5632

     36  H    Isotropic =    31.5380   Anisotropy =     8.7302

 The electronic state is 1-A.
 Alpha  occ. eigenvalues --  -24.80530 -24.80100 -19.20430 -14.37723 -10.33644
 Alpha  occ. eigenvalues --  -10.33596 -10.27160 -10.26562 -10.26293 -10.26225
 Alpha  occ. eigenvalues --  -10.25846 -10.25093 -10.25044 -10.23495 -10.22479
 Alpha  occ. eigenvalues --  -10.21539 -10.21090  -1.27759  -1.27374  -1.04615
 Alpha  occ. eigenvalues --   -0.94190  -0.90306  -0.82985  -0.79890  -0.78489
 Alpha  occ. eigenvalues --   -0.77991  -0.71296  -0.69956  -0.67000  -0.65880
 Alpha  occ. eigenvalues --   -0.63640  -0.62024  -0.58926  -0.57493  -0.55528
 Alpha  occ. eigenvalues --   -0.53181  -0.51859  -0.51834  -0.51232  -0.49481
 Alpha  occ. eigenvalues --   -0.48984  -0.48372  -0.47703  -0.46866  -0.45833
 Alpha  occ. eigenvalues --   -0.44670  -0.43405  -0.42339  -0.41707  -0.41335
 Alpha  occ. eigenvalues --   -0.40782  -0.39059  -0.38299  -0.38166  -0.37715
 Alpha  occ. eigenvalues --   -0.37261  -0.36305  -0.34814  -0.34283  -0.33299
 Alpha  occ. eigenvalues --   -0.32312  -0.28202  -0.27308  -0.26638  -0.23745
 Alpha virt. eigenvalues --   -0.01844  -0.00792   0.05030   0.05652   0.06641
 Alpha virt. eigenvalues --    0.06942   0.07273   0.09168   0.10351   0.10821
 Alpha virt. eigenvalues --    0.11226   0.12007   0.12479   0.13072   0.13623

 Mulliken charges:
               1
     1  C   -0.640474
     2  C   -0.453380
     3  C   -0.138862
     4  C   -0.292834
     5  C   -0.171583
     6  O   -0.614637
     7  N   -0.530277
     8  C   -0.372533
     9  C   -0.194448
    10  C   -0.287893
    11  C    0.328932
    12  C   -0.148121
    13  C    0.343205
    14  C   -0.284014
    15  H    0.232642
    16  H    0.233717
    17  H    0.233949
    18  F   -0.235102
    19  F   -0.236343
    20  H    0.217086
    21  H    0.226786
    22  H    0.214470
    23  H    0.223821
    24  H    0.228942
    25  H    0.234161
    26  H    0.208983
    27  H    0.208775
    28  H    0.408024
    29  H    0.232960
    30  H    0.248451
    31  H    0.234497
    32  C   -0.674471
    33  H    0.225412
    34  H    0.241509
    35  H    0.219936
    36  H    0.328716
 Sum of Mulliken charges =   0.00000

 Dipole moment (field-independent basis, Debye):
    X=             -0.1492    Y=              0.5747    Z=              0.2147  Tot=              0.6314
 Quadrupole moment (field-independent basis, Debye-Ang):
   XX=            -75.5704   YY=           -108.9918   ZZ=           -102.4280
   XY=             -8.4443   XZ=              4.1720   YZ=             -3.7228

 Normal termination of Gaussian 09 at Mon Mar  4 11:28:35 2019.
