 Gaussian 09, Revision D.01,
 Gaussian 09:  ES64L-G09RevD.01 24-Apr-2013

 -------------------------------------------------------
 # mPW1PW91/6-311g(d) nmr=giao scrf=(solvent=chloroform)
 -------------------------------------------------------

 ------------
 AT3_1ginp014
 ------------
 Symbolic Z-matrix:
 Charge =  0 Multiplicity = 1

                         Standard orientation:
 ---------------------------------------------------------------------
 Center     Atomic      Atomic             Coordinates (Angstroms)
 Number     Number       Type             X           Y           Z
 ---------------------------------------------------------------------
      1          6           0        2.251555    2.766443   -0.185818
      2          6           0        2.213779    1.805220    0.995549
      3          6           0        1.869156    0.336388    0.645969
      4          6           0        2.896093   -0.340239   -0.314957
      5          6           0        2.546045   -1.825068   -0.538103
      6          8           0        3.459737   -2.415629   -1.459843
      7          7           0        0.524284    0.198584    0.062130
      8          6           0       -0.562632    0.495865    0.993296
      9          6           0       -4.368518   -0.545756   -0.764812
     10          6           0       -3.750078    0.660162   -1.090361
     11          6           0       -2.523501    0.987412   -0.513559
     12          6           0       -1.891050    0.134848    0.393442
     13          6           0       -2.524442   -1.069528    0.702646
     14          6           0       -3.751662   -1.413271    0.135492
     15          1           0       -5.323794   -0.809246   -1.211393
     16          1           0       -4.212045    1.348318   -1.791910
     17          1           0       -4.215992   -2.358440    0.400772
     18          9           0       -1.946983    2.151891   -0.846516
     19          9           0       -1.959730   -1.922825    1.569391
     20          1           0        1.278302    2.837769   -0.679844
     21          1           0        2.517146    3.770229    0.162242
     22          1           0        2.997641    2.467174   -0.927010
     23          1           0        3.180499    1.842470    1.510691
     24          1           0        1.496064    2.189116    1.730338
     25          1           0        2.869786    0.155217   -1.294810
     26          1           0        1.542585   -1.941217   -0.958539
     27          1           0        2.597915   -2.384326    0.402335
     28          1           0        3.161372   -3.330747   -1.598607
     29          1           0       -0.426227   -0.058081    1.930117
     30          1           0       -0.578818    1.559096    1.259405
     31          1           0        1.893301   -0.233361    1.585453
     32          6           0        4.338329   -0.224628    0.204378
     33          1           0        4.427795   -0.641828    1.213008
     34          1           0        5.042052   -0.756822   -0.443993
     35          1           0        4.672191    0.816678    0.231933
     36          1           0        0.434309    0.794269   -0.761197
 ---------------------------------------------------------------------

 SCF Done:  E(RmPW1PW91) =  -836.457273947     A.U. after   12 cycles

      1  C    Isotropic =   182.4611   Anisotropy =    10.8817

      2  C    Isotropic =   167.9212   Anisotropy =    22.2030

      3  C    Isotropic =   123.8106   Anisotropy =    40.1315

      4  C    Isotropic =   147.8486   Anisotropy =    22.1995

      5  C    Isotropic =   118.4449   Anisotropy =    52.7164

      6  O    Isotropic =   307.4736   Anisotropy =   115.9790

      7  N    Isotropic =   210.1276   Anisotropy =    43.6454

      8  C    Isotropic =   147.9516   Anisotropy =    50.7921

      9  C    Isotropic =    54.8914   Anisotropy =   185.4354

     10  C    Isotropic =    71.0848   Anisotropy =   148.0185

     11  C    Isotropic =    19.6167   Anisotropy =    97.7305

     12  C    Isotropic =    65.2998   Anisotropy =   142.1869

     13  C    Isotropic =    19.6188   Anisotropy =   100.0469

     14  C    Isotropic =    70.6288   Anisotropy =   148.7635

     15  H    Isotropic =    24.5402   Anisotropy =     3.2003

     16  H    Isotropic =    25.2194   Anisotropy =     5.0715

     17  H    Isotropic =    25.2007   Anisotropy =     4.8491

     18  F    Isotropic =   306.0546   Anisotropy =   126.1137

     19  F    Isotropic =   300.9943   Anisotropy =   127.2393

     20  H    Isotropic =    31.1889   Anisotropy =     8.3590

     21  H    Isotropic =    31.1739   Anisotropy =    11.5336

     22  H    Isotropic =    31.3737   Anisotropy =     7.8762

     23  H    Isotropic =    30.5353   Anisotropy =     7.9834

     24  H    Isotropic =    30.0321   Anisotropy =     6.6354

     25  H    Isotropic =    30.3048   Anisotropy =     2.9923

     26  H    Isotropic =    27.6878   Anisotropy =     8.8666

     27  H    Isotropic =    28.7576   Anisotropy =     4.2061

     28  H    Isotropic =    31.5363   Anisotropy =    19.5373

     29  H    Isotropic =    28.9193   Anisotropy =     7.3591

     30  H    Isotropic =    28.1077   Anisotropy =     5.3549

     31  H    Isotropic =    29.6191   Anisotropy =     3.4300

     32  C    Isotropic =   173.3320   Anisotropy =    24.6908

     33  H    Isotropic =    31.8185   Anisotropy =     9.3160

     34  H    Isotropic =    30.5326   Anisotropy =     9.5043

     35  H    Isotropic =    31.2133   Anisotropy =     7.7719

     36  H    Isotropic =    31.4940   Anisotropy =     8.1117

 The electronic state is 1-A.
 Alpha  occ. eigenvalues --  -24.80555 -24.80187 -19.19926 -14.37731 -10.33714
 Alpha  occ. eigenvalues --  -10.33675 -10.26652 -10.26361 -10.26357 -10.26291
 Alpha  occ. eigenvalues --  -10.25925 -10.25159 -10.25120 -10.23578 -10.22487
 Alpha  occ. eigenvalues --  -10.21862 -10.21296  -1.27792  -1.27456  -1.04083
 Alpha  occ. eigenvalues --   -0.94243  -0.90377  -0.83028  -0.79854  -0.78565
 Alpha  occ. eigenvalues --   -0.77959  -0.71671  -0.68892  -0.67857  -0.65971
 Alpha  occ. eigenvalues --   -0.63968  -0.61223  -0.59025  -0.57629  -0.55679
 Alpha  occ. eigenvalues --   -0.52746  -0.51915  -0.51317  -0.51242  -0.49561
 Alpha  occ. eigenvalues --   -0.49174  -0.48467  -0.47779  -0.46966  -0.45421
 Alpha  occ. eigenvalues --   -0.44557  -0.43940  -0.42066  -0.41646  -0.41423
 Alpha  occ. eigenvalues --   -0.40933  -0.39272  -0.38570  -0.38171  -0.37797
 Alpha  occ. eigenvalues --   -0.36772  -0.35843  -0.35395  -0.34537  -0.33008
 Alpha  occ. eigenvalues --   -0.32403  -0.27738  -0.27412  -0.26715  -0.23557
 Alpha virt. eigenvalues --   -0.01937  -0.00863   0.04924   0.05667   0.06282
 Alpha virt. eigenvalues --    0.06777   0.08054   0.09375   0.10417   0.10621
 Alpha virt. eigenvalues --    0.11646   0.11687   0.12368   0.13124   0.13546

 Mulliken charges:
               1
     1  C   -0.672656
     2  C   -0.467950
     3  C   -0.114319
     4  C   -0.303211
     5  C   -0.156735
     6  O   -0.617850
     7  N   -0.535708
     8  C   -0.368501
     9  C   -0.194403
    10  C   -0.284047
    11  C    0.341707
    12  C   -0.152037
    13  C    0.332759
    14  C   -0.288039
    15  H    0.232961
    16  H    0.234201
    17  H    0.233866
    18  F   -0.236351
    19  F   -0.235314
    20  H    0.217721
    21  H    0.231250
    22  H    0.232374
    23  H    0.235360
    24  H    0.232290
    25  H    0.222221
    26  H    0.217949
    27  H    0.195272
    28  H    0.407226
    29  H    0.247363
    30  H    0.230265
    31  H    0.232366
    32  C   -0.670726
    33  H    0.217668
    34  H    0.240874
    35  H    0.232218
    36  H    0.329934
 Sum of Mulliken charges =   0.00000

 Dipole moment (field-independent basis, Debye):
    X=             -2.5241    Y=             -0.0437    Z=              0.3819  Tot=              2.5532
 Quadrupole moment (field-independent basis, Debye-Ang):
   XX=            -98.9548   YY=            -96.1860   ZZ=           -102.5712
   XY=              4.3074   XZ=              9.0967   YZ=              1.2750

 Normal termination of Gaussian 09 at Mon Mar  4 11:28:31 2019.
