 Gaussian 09, Revision D.01,
 Gaussian 09:  ES64L-G09RevD.01 24-Apr-2013

 -------------------------------------------------------
 # mPW1PW91/6-311g(d) nmr=giao scrf=(solvent=chloroform)
 -------------------------------------------------------

 ------------
 AT3_1ginp003
 ------------
 Symbolic Z-matrix:
 Charge =  0 Multiplicity = 1

                         Standard orientation:
 ---------------------------------------------------------------------
 Center     Atomic      Atomic             Coordinates (Angstroms)
 Number     Number       Type             X           Y           Z
 ---------------------------------------------------------------------
      1          6           0       -2.343477    2.979255   -0.406522
      2          6           0       -2.895970    1.650773    0.099761
      3          6           0       -2.153567    0.423155   -0.479837
      4          6           0       -2.941106   -0.892133   -0.188525
      5          6           0       -3.023683   -1.254101    1.305793
      6          8           0       -1.749989   -1.554126    1.861664
      7          7           0       -0.780701    0.349412    0.059103
      8          6           0        0.223124    0.269328   -1.010912
      9          6           0        4.176320   -0.201396    0.661910
     10          6           0        3.514632   -1.296407    0.107936
     11          6           0        2.239842   -1.136515   -0.434774
     12          6           0        1.601101    0.104030   -0.440556
     13          6           0        2.280265    1.187062    0.120819
     14          6           0        3.555041    1.046309    0.667522
     15          1           0        5.168672   -0.321140    1.089006
     16          1           0        3.980304   -2.277494    0.095855
     17          1           0        4.052183    1.910712    1.097373
     18          9           0        1.633038   -2.206254   -0.968659
     19          9           0        1.699764    2.396214    0.143226
     20          1           0       -2.375238    3.024386   -1.499768
     21          1           0       -2.945138    3.806996   -0.017380
     22          1           0       -1.310371    3.140394   -0.085301
     23          1           0       -2.856667    1.648759    1.195512
     24          1           0       -3.955820    1.597260   -0.178110
     25          1           0       -3.971085   -0.739892   -0.539275
     26          1           0       -3.659604   -2.134616    1.446765
     27          1           0       -3.467632   -0.441688    1.888184
     28          1           0       -1.107291   -0.974355    1.396794
     29          1           0        0.003699   -0.566904   -1.684564
     30          1           0        0.198434    1.178122   -1.626092
     31          1           0       -2.133063    0.558425   -1.570501
     32          6           0       -2.375747   -2.075277   -0.986648
     33          1           0       -1.363673   -2.344717   -0.669233
     34          1           0       -3.009034   -2.959920   -0.858368
     35          1           0       -2.347040   -1.842605   -2.056338
     36          1           0       -0.572679    1.191268    0.601497
 ---------------------------------------------------------------------

 SCF Done:  E(RmPW1PW91) =  -836.465005549     A.U. after   12 cycles

      1  C    Isotropic =   175.0018   Anisotropy =    21.6654

      2  C    Isotropic =   156.0038   Anisotropy =    28.8751

      3  C    Isotropic =   119.3574   Anisotropy =    12.5479

      4  C    Isotropic =   144.9021   Anisotropy =    11.7044

      5  C    Isotropic =   121.4588   Anisotropy =    54.1116

      6  O    Isotropic =   315.6765   Anisotropy =    99.9596

      7  N    Isotropic =   203.3685   Anisotropy =    52.9383

      8  C    Isotropic =   143.1553   Anisotropy =    56.1512

      9  C    Isotropic =    54.0536   Anisotropy =   186.5849

     10  C    Isotropic =    70.1817   Anisotropy =   149.8141

     11  C    Isotropic =    20.2378   Anisotropy =    99.3074

     12  C    Isotropic =    67.2583   Anisotropy =   139.5742

     13  C    Isotropic =    19.2949   Anisotropy =    98.0179

     14  C    Isotropic =    70.8570   Anisotropy =   148.5116

     15  H    Isotropic =    24.5106   Anisotropy =     3.2055

     16  H    Isotropic =    25.1552   Anisotropy =     5.0978

     17  H    Isotropic =    25.2048   Anisotropy =     5.1134

     18  F    Isotropic =   301.8499   Anisotropy =   126.1177

     19  F    Isotropic =   306.3070   Anisotropy =   127.5103

     20  H    Isotropic =    31.1057   Anisotropy =     8.2383

     21  H    Isotropic =    30.8323   Anisotropy =    11.3639

     22  H    Isotropic =    30.8266   Anisotropy =     7.2070

     23  H    Isotropic =    30.3478   Anisotropy =     5.4513

     24  H    Isotropic =    30.6458   Anisotropy =     8.5085

     25  H    Isotropic =    30.8327   Anisotropy =     7.6477

     26  H    Isotropic =    28.6297   Anisotropy =     8.8416

     27  H    Isotropic =    27.9571   Anisotropy =     5.8678

     28  H    Isotropic =    28.1243   Anisotropy =    25.3875

     29  H    Isotropic =    28.3774   Anisotropy =     5.2776

     30  H    Isotropic =    28.3522   Anisotropy =     5.1313

     31  H    Isotropic =    29.5406   Anisotropy =     2.7142

     32  C    Isotropic =   169.2608   Anisotropy =    27.1133

     33  H    Isotropic =    29.9688   Anisotropy =     5.9296

     34  H    Isotropic =    31.0095   Anisotropy =    11.2718

     35  H    Isotropic =    31.0982   Anisotropy =     7.4471

     36  H    Isotropic =    31.1223   Anisotropy =     9.0895

 The electronic state is 1-A.
 Alpha  occ. eigenvalues --  -24.80960 -24.80499 -19.17674 -14.39816 -10.34051
 Alpha  occ. eigenvalues --  -10.33977 -10.27479 -10.26883 -10.26667 -10.26156
 Alpha  occ. eigenvalues --  -10.26153 -10.25398 -10.25326 -10.23494 -10.23357
 Alpha  occ. eigenvalues --  -10.22290 -10.21404  -1.28182  -1.27736  -1.02398
 Alpha  occ. eigenvalues --   -0.95472  -0.90732  -0.83320  -0.80203  -0.78826
 Alpha  occ. eigenvalues --   -0.78703  -0.72057  -0.69202  -0.67975  -0.66268
 Alpha  occ. eigenvalues --   -0.64171  -0.61933  -0.59420  -0.58408  -0.56285
 Alpha  occ. eigenvalues --   -0.52273  -0.52177  -0.52016  -0.51248  -0.49971
 Alpha  occ. eigenvalues --   -0.49605  -0.47750  -0.47300  -0.47072  -0.46372
 Alpha  occ. eigenvalues --   -0.44806  -0.43625  -0.42809  -0.41850  -0.41679
 Alpha  occ. eigenvalues --   -0.41075  -0.40311  -0.39157  -0.38271  -0.37917
 Alpha  occ. eigenvalues --   -0.37668  -0.36772  -0.35934  -0.33963  -0.33292
 Alpha  occ. eigenvalues --   -0.32337  -0.27812  -0.26955  -0.26339  -0.25413
 Alpha virt. eigenvalues --   -0.02309  -0.01109   0.04712   0.05808   0.06723
 Alpha virt. eigenvalues --    0.07420   0.07952   0.10177   0.10386   0.10567
 Alpha virt. eigenvalues --    0.11195   0.11249   0.11955   0.13029   0.13492

 Mulliken charges:
               1
     1  C   -0.655090
     2  C   -0.487315
     3  C   -0.095192
     4  C   -0.304974
     5  C   -0.179996
     6  O   -0.622822
     7  N   -0.604366
     8  C   -0.376394
     9  C   -0.192452
    10  C   -0.280131
    11  C    0.330769
    12  C   -0.157538
    13  C    0.339022
    14  C   -0.280466
    15  H    0.234887
    16  H    0.236716
    17  H    0.236107
    18  F   -0.232570
    19  F   -0.235354
    20  H    0.225368
    21  H    0.233072
    22  H    0.220309
    23  H    0.237892
    24  H    0.233947
    25  H    0.223218
    26  H    0.214670
    27  H    0.208296
    28  H    0.411676
    29  H    0.270469
    30  H    0.243974
    31  H    0.233534
    32  C   -0.663683
    33  H    0.232528
    34  H    0.227710
    35  H    0.221164
    36  H    0.353014
 Sum of Mulliken charges =   0.00000

 Dipole moment (field-independent basis, Debye):
    X=              1.2918    Y=              2.9648    Z=             -2.1116  Tot=              3.8623
 Quadrupole moment (field-independent basis, Debye-Ang):
   XX=            -83.6425   YY=           -106.6029   ZZ=           -107.6901
   XY=             -5.3294   XZ=              8.6149   YZ=              5.3739

 Normal termination of Gaussian 09 at Mon Mar  4 11:29:01 2019.
