 Gaussian 09, Revision D.01,
 Gaussian 09:  ES64L-G09RevD.01 24-Apr-2013

 -------------------------------------------------------
 # mPW1PW91/6-311g(d) nmr=giao scrf=(solvent=chloroform)
 -------------------------------------------------------

 ------------
 AT3_2ginp008
 ------------
 Symbolic Z-matrix:
 Charge =  0 Multiplicity = 1

                         Standard orientation:
 ---------------------------------------------------------------------
 Center     Atomic      Atomic             Coordinates (Angstroms)
 Number     Number       Type             X           Y           Z
 ---------------------------------------------------------------------
      1          6           0       -1.965144    3.092883   -1.049498
      2          6           0       -2.568844    1.703370   -0.862435
      3          6           0       -1.864252    0.848509    0.222959
      4          6           0       -2.650018   -0.458319    0.552314
      5          6           0       -2.706595   -1.440284   -0.626373
      6          8           0       -3.346037   -2.648217   -0.219208
      7          7           0       -0.477695    0.577438   -0.208464
      8          6           0        0.363522    0.021652    0.857415
      9          6           0        4.443531   -0.396988   -0.503100
     10          6           0        3.979985    0.832784   -0.039015
     11          6           0        2.662411    0.955189    0.400675
     12          6           0        1.784885   -0.130690    0.393711
     13          6           0        2.266773   -1.351725   -0.080343
     14          6           0        3.581793   -1.492671   -0.523844
     15          1           0        5.468748   -0.500866   -0.848881
     16          1           0        4.633893    1.699466   -0.018440
     17          1           0        3.922379   -2.458977   -0.883911
     18          9           0        2.238242    2.151412    0.834333
     19          9           0        1.464470   -2.425657   -0.109526
     20          1           0       -2.595280    3.684425   -1.721991
     21          1           0       -1.898985    3.624459   -0.095074
     22          1           0       -0.967463    3.049105   -1.495197
     23          1           0       -3.620076    1.850141   -0.593909
     24          1           0       -2.559624    1.183930   -1.828137
     25          1           0       -2.143908   -0.968153    1.382273
     26          1           0       -1.701757   -1.698590   -0.974348
     27          1           0       -3.274229   -1.027661   -1.465978
     28          1           0       -3.269043   -3.268279   -0.964501
     29          1           0        0.345744    0.670385    1.742340
     30          1           0       -0.003894   -0.958212    1.179374
     31          1           0       -1.828576    1.457859    1.136724
     32          6           0       -4.061803   -0.165011    1.084250
     33          1           0       -4.739639    0.161137    0.289456
     34          1           0       -4.498884   -1.062116    1.536386
     35          1           0       -4.034733    0.609620    1.857705
     36          1           0       -0.044382    1.452003   -0.504545
 ---------------------------------------------------------------------

 SCF Done:  E(RmPW1PW91) =  -836.456538033     A.U. after   12 cycles

      1  C    Isotropic =   174.9652   Anisotropy =    22.9074

      2  C    Isotropic =   163.2794   Anisotropy =    17.0696

      3  C    Isotropic =   120.0598   Anisotropy =    21.9862

      4  C    Isotropic =   150.9230   Anisotropy =    27.2043

      5  C    Isotropic =   122.7350   Anisotropy =    53.3696

      6  O    Isotropic =   310.0962   Anisotropy =   113.1624

      7  N    Isotropic =   198.1949   Anisotropy =    49.3213

      8  C    Isotropic =   147.7736   Anisotropy =    50.6332

      9  C    Isotropic =    54.5026   Anisotropy =   185.8767

     10  C    Isotropic =    71.0140   Anisotropy =   148.0860

     11  C    Isotropic =    18.9980   Anisotropy =    99.0139

     12  C    Isotropic =    66.0990   Anisotropy =   140.7527

     13  C    Isotropic =    19.4235   Anisotropy =    99.5379

     14  C    Isotropic =    70.5952   Anisotropy =   148.5578

     15  H    Isotropic =    24.5170   Anisotropy =     3.2151

     16  H    Isotropic =    25.1807   Anisotropy =     5.0081

     17  H    Isotropic =    25.1710   Anisotropy =     5.0611

     18  F    Isotropic =   306.6911   Anisotropy =   129.4039

     19  F    Isotropic =   301.8663   Anisotropy =   128.9922

     20  H    Isotropic =    30.9503   Anisotropy =    11.2956

     21  H    Isotropic =    31.5005   Anisotropy =     8.7910

     22  H    Isotropic =    31.3168   Anisotropy =     7.3625

     23  H    Isotropic =    30.4737   Anisotropy =     7.0382

     24  H    Isotropic =    31.0059   Anisotropy =     6.0482

     25  H    Isotropic =    29.6819   Anisotropy =     5.7677

     26  H    Isotropic =    27.8609   Anisotropy =     6.4847

     27  H    Isotropic =    28.6424   Anisotropy =     5.8740

     28  H    Isotropic =    31.4739   Anisotropy =    19.6171

     29  H    Isotropic =    28.6665   Anisotropy =     6.7601

     30  H    Isotropic =    28.1322   Anisotropy =     5.0524

     31  H    Isotropic =    29.4412   Anisotropy =     3.8124

     32  C    Isotropic =   171.2689   Anisotropy =    24.5403

     33  H    Isotropic =    31.3021   Anisotropy =     7.9898

     34  H    Isotropic =    30.4438   Anisotropy =     9.5268

     35  H    Isotropic =    31.4454   Anisotropy =     9.1484

     36  H    Isotropic =    31.3512   Anisotropy =     9.5337

 The electronic state is 1-A.
 Alpha  occ. eigenvalues --  -24.80557 -24.80278 -19.20006 -14.37910 -10.33789
 Alpha  occ. eigenvalues --  -10.33748 -10.26572 -10.26540 -10.26405 -10.26381
 Alpha  occ. eigenvalues --  -10.25990 -10.25206 -10.25166 -10.23639 -10.22734
 Alpha  occ. eigenvalues --  -10.22030 -10.21427  -1.27815  -1.27515  -1.04167
 Alpha  occ. eigenvalues --   -0.94210  -0.90421  -0.83040  -0.80047  -0.78617
 Alpha  occ. eigenvalues --   -0.78293  -0.71463  -0.69238  -0.67477  -0.66022
 Alpha  occ. eigenvalues --   -0.63759  -0.62199  -0.59032  -0.56146  -0.55942
 Alpha  occ. eigenvalues --   -0.52636  -0.52253  -0.51960  -0.51059  -0.49687
 Alpha  occ. eigenvalues --   -0.49474  -0.48577  -0.47941  -0.46940  -0.45625
 Alpha  occ. eigenvalues --   -0.44434  -0.43419  -0.42555  -0.41991  -0.41467
 Alpha  occ. eigenvalues --   -0.40478  -0.39081  -0.38901  -0.37978  -0.37869
 Alpha  occ. eigenvalues --   -0.37452  -0.36445  -0.35018  -0.34151  -0.33131
 Alpha  occ. eigenvalues --   -0.31950  -0.27757  -0.27513  -0.26768  -0.24214
 Alpha virt. eigenvalues --   -0.02039  -0.00911   0.05195   0.05637   0.06108
 Alpha virt. eigenvalues --    0.07084   0.07792   0.09167   0.10260   0.11026
 Alpha virt. eigenvalues --    0.11219   0.11669   0.12545   0.13128   0.13474

 Mulliken charges:
               1
     1  C   -0.674660
     2  C   -0.462575
     3  C   -0.101607
     4  C   -0.310067
     5  C   -0.163801
     6  O   -0.617926
     7  N   -0.553275
     8  C   -0.361260
     9  C   -0.192898
    10  C   -0.284831
    11  C    0.336915
    12  C   -0.172329
    13  C    0.344323
    14  C   -0.284886
    15  H    0.233262
    16  H    0.234601
    17  H    0.234418
    18  F   -0.237248
    19  F   -0.234360
    20  H    0.231603
    21  H    0.225932
    22  H    0.224703
    23  H    0.240480
    24  H    0.227602
    25  H    0.233810
    26  H    0.219222
    27  H    0.205250
    28  H    0.407412
    29  H    0.221517
    30  H    0.257910
    31  H    0.213609
    32  C   -0.660791
    33  H    0.222331
    34  H    0.238773
    35  H    0.224215
    36  H    0.334628
 Sum of Mulliken charges =   0.00000

 Dipole moment (field-independent basis, Debye):
    X=              2.1230    Y=              0.9884    Z=             -1.4583  Tot=              2.7587
 Quadrupole moment (field-independent basis, Debye-Ang):
   XX=            -92.3159   YY=           -100.7046   ZZ=           -101.0727
   XY=             -4.8157   XZ=              1.5535   YZ=              4.6519

 Normal termination of Gaussian 09 at Mon Mar  4 11:28:24 2019.
