 Gaussian 09, Revision D.01,
 Gaussian 09:  ES64L-G09RevD.01 24-Apr-2013

 -------------------------------------------------------
 # mPW1PW91/6-311g(d) nmr=giao scrf=(solvent=chloroform)
 -------------------------------------------------------

 ------------
 AT3_1ginp005
 ------------
 Symbolic Z-matrix:
 Charge =  0 Multiplicity = 1

                         Standard orientation:
 ---------------------------------------------------------------------
 Center     Atomic      Atomic             Coordinates (Angstroms)
 Number     Number       Type             X           Y           Z
 ---------------------------------------------------------------------
      1          6           0       -4.192628    1.870662   -0.388991
      2          6           0       -2.764880    1.692731    0.108944
      3          6           0       -2.043560    0.453946   -0.476039
      4          6           0       -2.775437   -0.890929   -0.174583
      5          6           0       -2.873455   -1.222042    1.325686
      6          8           0       -1.598631   -1.431640    1.919189
      7          7           0       -0.660932    0.436564    0.052604
      8          6           0        0.335456    0.329287   -1.023301
      9          6           0        4.307089   -0.040627    0.631995
     10          6           0        3.673019    1.200152    0.597930
     11          6           0        2.392451    1.308384    0.057259
     12          6           0        1.719901    0.199193   -0.459088
     13          6           0        2.371609   -1.033870   -0.414130
     14          6           0        3.652314   -1.161392    0.123242
     15          1           0        5.304004   -0.134959    1.054794
     16          1           0        4.164662    2.084433    0.992203
     17          1           0        4.127949   -2.137567    0.142424
     18          9           0        1.800137    2.511859    0.040653
     19          9           0        1.771932   -2.128144   -0.904606
     20          1           0       -4.855611    1.094329    0.003229
     21          1           0       -4.587152    2.836018   -0.055321
     22          1           0       -4.234722    1.848007   -1.482355
     23          1           0       -2.201816    2.592869   -0.172832
     24          1           0       -2.768370    1.664743    1.205047
     25          1           0       -3.800862   -0.808337   -0.555095
     26          1           0       -3.459554   -2.135307    1.474145
     27          1           0       -3.379725   -0.424374    1.876692
     28          1           0       -0.974303   -0.840954    1.443098
     29          1           0        0.122615   -0.530389   -1.668297
     30          1           0        0.294450    1.216690   -1.668215
     31          1           0       -2.030472    0.592511   -1.566330
     32          6           0       -2.139757   -2.066947   -0.930413
     33          1           0       -1.130007   -2.293493   -0.574796
     34          1           0       -2.743569   -2.972297   -0.803525
     35          1           0       -2.086412   -1.854592   -2.003341
     36          1           0       -0.466879    1.315123    0.541247
 ---------------------------------------------------------------------

 SCF Done:  E(RmPW1PW91) =  -836.464425359     A.U. after   12 cycles

      1  C    Isotropic =   174.8870   Anisotropy =    20.1970

      2  C    Isotropic =   157.6834   Anisotropy =    32.6044

      3  C    Isotropic =   120.4196   Anisotropy =    30.7297

      4  C    Isotropic =   151.8008   Anisotropy =     7.6774

      5  C    Isotropic =   122.8949   Anisotropy =    57.2767

      6  O    Isotropic =   317.4022   Anisotropy =    99.8317

      7  N    Isotropic =   195.6462   Anisotropy =    67.1270

      8  C    Isotropic =   143.9557   Anisotropy =    54.8469

      9  C    Isotropic =    54.1471   Anisotropy =   186.5310

     10  C    Isotropic =    70.8733   Anisotropy =   148.4217

     11  C    Isotropic =    19.1926   Anisotropy =    98.1292

     12  C    Isotropic =    67.1618   Anisotropy =   139.9629

     13  C    Isotropic =    20.2303   Anisotropy =    99.3995

     14  C    Isotropic =    70.2593   Anisotropy =   149.7315

     15  H    Isotropic =    24.5224   Anisotropy =     3.2041

     16  H    Isotropic =    25.2239   Anisotropy =     4.9969

     17  H    Isotropic =    25.1593   Anisotropy =     5.1469

     18  F    Isotropic =   306.7831   Anisotropy =   128.8616

     19  F    Isotropic =   302.2543   Anisotropy =   125.7350

     20  H    Isotropic =    31.2126   Anisotropy =     7.6511

     21  H    Isotropic =    30.9998   Anisotropy =    11.4105

     22  H    Isotropic =    31.3972   Anisotropy =     8.7892

     23  H    Isotropic =    30.3823   Anisotropy =     7.0379

     24  H    Isotropic =    30.2949   Anisotropy =     4.7772

     25  H    Isotropic =    30.5744   Anisotropy =     7.4984

     26  H    Isotropic =    28.6553   Anisotropy =     8.7681

     27  H    Isotropic =    27.9927   Anisotropy =     5.8355

     28  H    Isotropic =    28.1566   Anisotropy =    24.9642

     29  H    Isotropic =    28.3863   Anisotropy =     4.7543

     30  H    Isotropic =    28.3515   Anisotropy =     5.8319

     31  H    Isotropic =    29.5201   Anisotropy =     2.5676

     32  C    Isotropic =   169.6830   Anisotropy =    25.7617

     33  H    Isotropic =    29.9422   Anisotropy =     6.4459

     34  H    Isotropic =    30.9282   Anisotropy =    11.1999

     35  H    Isotropic =    31.1586   Anisotropy =     7.6033

     36  H    Isotropic =    31.1808   Anisotropy =     9.6657

 The electronic state is 1-A.
 Alpha  occ. eigenvalues --  -24.80863 -24.80482 -19.17703 -14.39673 -10.33994
 Alpha  occ. eigenvalues --  -10.33937 -10.27404 -10.26950 -10.26620 -10.26208
 Alpha  occ. eigenvalues --  -10.26118 -10.25357 -10.25293 -10.23581 -10.23427
 Alpha  occ. eigenvalues --  -10.22162 -10.21472  -1.28103  -1.27716  -1.02414
 Alpha  occ. eigenvalues --   -0.95311  -0.90681  -0.83359  -0.80284  -0.78783
 Alpha  occ. eigenvalues --   -0.78522  -0.72190  -0.69040  -0.67508  -0.66206
 Alpha  occ. eigenvalues --   -0.64122  -0.62827  -0.59378  -0.58000  -0.56203
 Alpha  occ. eigenvalues --   -0.52163  -0.52123  -0.51838  -0.51230  -0.49792
 Alpha  occ. eigenvalues --   -0.49163  -0.48219  -0.47268  -0.47081  -0.46429
 Alpha  occ. eigenvalues --   -0.44912  -0.44209  -0.42990  -0.41724  -0.41575
 Alpha  occ. eigenvalues --   -0.40520  -0.39164  -0.38824  -0.38546  -0.38166
 Alpha  occ. eigenvalues --   -0.37711  -0.37141  -0.36237  -0.33800  -0.33287
 Alpha  occ. eigenvalues --   -0.32227  -0.27747  -0.26916  -0.26370  -0.25439
 Alpha virt. eigenvalues --   -0.02255  -0.01070   0.04889   0.05728   0.06990
 Alpha virt. eigenvalues --    0.07173   0.07911   0.10066   0.10387   0.10515
 Alpha virt. eigenvalues --    0.10986   0.11567   0.11887   0.13215   0.13485

 Mulliken charges:
               1
     1  C   -0.666319
     2  C   -0.489292
     3  C   -0.081473
     4  C   -0.320218
     5  C   -0.176848
     6  O   -0.623402
     7  N   -0.606656
     8  C   -0.381491
     9  C   -0.192575
    10  C   -0.280131
    11  C    0.340015
    12  C   -0.153118
    13  C    0.329875
    14  C   -0.279524
    15  H    0.234549
    16  H    0.235753
    17  H    0.236521
    18  F   -0.237350
    19  F   -0.232569
    20  H    0.231639
    21  H    0.230532
    22  H    0.225843
    23  H    0.233957
    24  H    0.238979
    25  H    0.235933
    26  H    0.214671
    27  H    0.207805
    28  H    0.409916
    29  H    0.270856
    30  H    0.240088
    31  H    0.230071
    32  C   -0.665130
    33  H    0.234457
    34  H    0.228418
    35  H    0.221664
    36  H    0.354555
 Sum of Mulliken charges =   0.00000

 Dipole moment (field-independent basis, Debye):
    X=              1.1785    Y=              2.8775    Z=             -2.2595  Tot=              3.8437
 Quadrupole moment (field-independent basis, Debye-Ang):
   XX=            -83.6957   YY=           -105.1565   ZZ=           -108.2662
   XY=             -3.7590   XZ=              7.8959   YZ=              5.0244

 Normal termination of Gaussian 09 at Mon Mar  4 11:29:01 2019.
