 Gaussian 09, Revision D.01,
 Gaussian 09:  ES64L-G09RevD.01 24-Apr-2013

 -------------------------------------------------------
 # mPW1PW91/6-311g(d) nmr=giao scrf=(solvent=chloroform)
 -------------------------------------------------------

 ------------
 AT3_1ginp010
 ------------
 Symbolic Z-matrix:
 Charge =  0 Multiplicity = 1

                         Standard orientation:
 ---------------------------------------------------------------------
 Center     Atomic      Atomic             Coordinates (Angstroms)
 Number     Number       Type             X           Y           Z
 ---------------------------------------------------------------------
      1          6           0        1.256426    2.452651    1.866737
      2          6           0        2.169768    1.598104    0.991705
      3          6           0        1.410265    0.562980    0.122581
      4          6           0        2.370023   -0.484421   -0.526397
      5          6           0        3.013249   -1.421968    0.507635
      6          8           0        2.021658   -2.076206    1.290751
      7          7           0        0.621676    1.284452   -0.898916
      8          6           0       -0.390865    0.478664   -1.591542
      9          6           0       -3.579990   -0.930465    0.959642
     10          6           0       -2.573378   -1.803223    0.549576
     11          6           0       -1.549029   -1.341831   -0.276391
     12          6           0       -1.502858   -0.015324   -0.710806
     13          6           0       -2.517537    0.842827   -0.283675
     14          6           0       -3.550118    0.398772    0.541247
     15          1           0       -4.380206   -1.282928    1.605526
     16          1           0       -2.575469   -2.840298    0.872046
     17          1           0       -4.322344    1.095511    0.853793
     18          9           0       -0.583883   -2.200570   -0.639039
     19          9           0       -2.507986    2.128375   -0.664877
     20          1           0        0.606413    1.825503    2.485020
     21          1           0        1.858981    3.075717    2.535906
     22          1           0        0.629550    3.123660    1.273112
     23          1           0        2.773733    2.262424    0.361712
     24          1           0        2.865678    1.082678    1.661510
     25          1           0        1.768874   -1.135623   -1.171707
     26          1           0        3.686976   -0.889450    1.184587
     27          1           0        3.604369   -2.196482    0.006359
     28          1           0        1.403067   -2.510455    0.675219
     29          1           0       -0.833728    1.107387   -2.375168
     30          1           0        0.065844   -0.348395   -2.145101
     31          1           0        0.724398    0.038880    0.797578
     32          6           0        3.455321    0.144405   -1.405645
     33          1           0        4.163644    0.734191   -0.815278
     34          1           0        4.027461   -0.634897   -1.921242
     35          1           0        3.022304    0.793377   -2.173081
     36          1           0        0.144637    2.080421   -0.477138
 ---------------------------------------------------------------------

 SCF Done:  E(RmPW1PW91) =  -836.459660365     A.U. after   12 cycles

      1  C    Isotropic =   175.5664   Anisotropy =    21.6285

      2  C    Isotropic =   165.1377   Anisotropy =    17.7475

      3  C    Isotropic =   131.3937   Anisotropy =    18.1807

      4  C    Isotropic =   148.7770   Anisotropy =    19.0421

      5  C    Isotropic =   120.0848   Anisotropy =    64.3160

      6  O    Isotropic =   294.7838   Anisotropy =   100.5199

      7  N    Isotropic =   202.9439   Anisotropy =    50.2099

      8  C    Isotropic =   150.6232   Anisotropy =    48.3674

      9  C    Isotropic =    54.9386   Anisotropy =   185.3844

     10  C    Isotropic =    71.4721   Anisotropy =   147.9572

     11  C    Isotropic =    19.5899   Anisotropy =    98.7431

     12  C    Isotropic =    65.4570   Anisotropy =   144.3631

     13  C    Isotropic =    19.7101   Anisotropy =    98.1405

     14  C    Isotropic =    69.9477   Anisotropy =   150.0034

     15  H    Isotropic =    24.5550   Anisotropy =     3.1659

     16  H    Isotropic =    25.2611   Anisotropy =     5.3389

     17  H    Isotropic =    25.1413   Anisotropy =     4.7822

     18  F    Isotropic =   306.1285   Anisotropy =   121.4680

     19  F    Isotropic =   304.3326   Anisotropy =   141.0794

     20  H    Isotropic =    31.8205   Anisotropy =     7.4533

     21  H    Isotropic =    31.0350   Anisotropy =    11.9808

     22  H    Isotropic =    31.4214   Anisotropy =     7.3419

     23  H    Isotropic =    30.8794   Anisotropy =     6.9580

     24  H    Isotropic =    30.6347   Anisotropy =     7.5891

     25  H    Isotropic =    29.9143   Anisotropy =     5.0080

     26  H    Isotropic =    28.7221   Anisotropy =     5.0554

     27  H    Isotropic =    28.1797   Anisotropy =     7.3453

     28  H    Isotropic =    31.8808   Anisotropy =    15.2598

     29  H    Isotropic =    28.1770   Anisotropy =     8.5454

     30  H    Isotropic =    28.3066   Anisotropy =     4.8511

     31  H    Isotropic =    29.4057   Anisotropy =     3.0854

     32  C    Isotropic =   177.7890   Anisotropy =    20.8447

     33  H    Isotropic =    31.6874   Anisotropy =     8.6735

     34  H    Isotropic =    31.6614   Anisotropy =    10.7939

     35  H    Isotropic =    30.7824   Anisotropy =     8.1628

     36  H    Isotropic =    31.0079   Anisotropy =    11.6098

 The electronic state is 1-A.
 Alpha  occ. eigenvalues --  -24.81101 -24.80649 -19.20360 -14.37863 -10.33887
 Alpha  occ. eigenvalues --  -10.33838 -10.27109 -10.26711 -10.26268 -10.26028
 Alpha  occ. eigenvalues --  -10.25789 -10.25310 -10.25304 -10.23530 -10.22547
 Alpha  occ. eigenvalues --  -10.21841 -10.21481  -1.28286  -1.27903  -1.04533
 Alpha  occ. eigenvalues --   -0.94012  -0.90405  -0.82800  -0.80123  -0.78774
 Alpha  occ. eigenvalues --   -0.78292  -0.71610  -0.69163  -0.67864  -0.66245
 Alpha  occ. eigenvalues --   -0.63861  -0.62799  -0.59472  -0.57037  -0.55893
 Alpha  occ. eigenvalues --   -0.52681  -0.52178  -0.51603  -0.50714  -0.50344
 Alpha  occ. eigenvalues --   -0.49853  -0.48478  -0.48164  -0.47225  -0.45748
 Alpha  occ. eigenvalues --   -0.44199  -0.43314  -0.42245  -0.41740  -0.41707
 Alpha  occ. eigenvalues --   -0.40840  -0.39850  -0.39031  -0.38158  -0.37956
 Alpha  occ. eigenvalues --   -0.37895  -0.36571  -0.35000  -0.33945  -0.33125
 Alpha  occ. eigenvalues --   -0.31867  -0.28244  -0.27685  -0.26945  -0.23789
 Alpha virt. eigenvalues --   -0.02117  -0.01109   0.05108   0.05982   0.06147
 Alpha virt. eigenvalues --    0.06927   0.07487   0.10083   0.10389   0.10475
 Alpha virt. eigenvalues --    0.11421   0.11889   0.12719   0.13102   0.13439

 Mulliken charges:
               1
     1  C   -0.668864
     2  C   -0.474343
     3  C   -0.069277
     4  C   -0.358061
     5  C   -0.176946
     6  O   -0.592586
     7  N   -0.543935
     8  C   -0.417189
     9  C   -0.194863
    10  C   -0.279563
    11  C    0.326439
    12  C   -0.155534
    13  C    0.340916
    14  C   -0.282272
    15  H    0.233940
    16  H    0.235975
    17  H    0.235196
    18  F   -0.244422
    19  F   -0.234969
    20  H    0.228332
    21  H    0.229528
    22  H    0.221069
    23  H    0.229816
    24  H    0.236060
    25  H    0.224851
    26  H    0.225301
    27  H    0.215622
    28  H    0.399461
    29  H    0.256310
    30  H    0.265218
    31  H    0.229606
    32  C   -0.657201
    33  H    0.225708
    34  H    0.222470
    35  H    0.236554
    36  H    0.331654
 Sum of Mulliken charges =   0.00000

 Dipole moment (field-independent basis, Debye):
    X=             -1.9816    Y=             -0.5282    Z=             -0.1537  Tot=              2.0566
 Quadrupole moment (field-independent basis, Debye-Ang):
   XX=            -93.1614   YY=           -101.7166   ZZ=           -105.4066
   XY=              3.6447   XZ=             -6.4126   YZ=              4.9436

 Normal termination of Gaussian 09 at Mon Mar  4 11:29:52 2019.
