 Gaussian 09, Revision D.01,
 Gaussian 09:  ES64L-G09RevD.01 24-Apr-2013

 -------------------------------------------------------
 # mPW1PW91/6-311g(d) nmr=giao scrf=(solvent=chloroform)
 -------------------------------------------------------

 ------------
 AT3_1ginp009
 ------------
 Symbolic Z-matrix:
 Charge =  0 Multiplicity = 1

                         Standard orientation:
 ---------------------------------------------------------------------
 Center     Atomic      Atomic             Coordinates (Angstroms)
 Number     Number       Type             X           Y           Z
 ---------------------------------------------------------------------
      1          6           0        2.184128    2.816342   -0.916883
      2          6           0        2.600440    1.351898   -1.029185
      3          6           0        1.882017    0.414077   -0.024906
      4          6           0        2.507195   -1.018195    0.001907
      5          6           0        3.987206   -1.030003    0.415423
      6          8           0        4.165716   -0.329711    1.639142
      7          7           0        0.439517    0.368106   -0.354782
      8          6           0       -0.380270   -0.126982    0.756564
      9          6           0       -4.565532   -0.100268   -0.320208
     10          6           0       -3.839277   -1.289593   -0.358489
     11          6           0       -2.489332   -1.292116   -0.006550
     12          6           0       -1.838001   -0.123577    0.391071
     13          6           0       -2.582565    1.057255    0.418857
     14          6           0       -3.932637    1.078423    0.070357
     15          1           0       -5.616981   -0.092249   -0.595216
     16          1           0       -4.312736   -2.218677   -0.661632
     17          1           0       -4.479022    2.016169    0.103768
     18          9           0       -1.821899   -2.454502   -0.046674
     19          9           0       -1.995952    2.206634    0.784855
     20          1           0        2.824635    3.434536   -1.554715
     21          1           0        1.152299    2.976303   -1.241500
     22          1           0        2.286164    3.175717    0.111894
     23          1           0        2.431685    1.016095   -2.059344
     24          1           0        3.681471    1.318463   -0.860321
     25          1           0        1.981402   -1.588884    0.777884
     26          1           0        4.630331   -0.578836   -0.346208
     27          1           0        4.324624   -2.061713    0.566099
     28          1           0        5.105052   -0.411023    1.879106
     29          1           0       -0.091815   -1.144316    1.039545
     30          1           0       -0.238203    0.497046    1.648178
     31          1           0        1.996018    0.863956    0.970400
     32          6           0        2.343147   -1.780777   -1.317966
     33          1           0        1.291093   -1.860520   -1.608511
     34          1           0        2.889329   -1.297847   -2.134285
     35          1           0        2.730369   -2.801161   -1.220641
     36          1           0        0.113480    1.309808   -0.567735
 ---------------------------------------------------------------------

 SCF Done:  E(RmPW1PW91) =  -836.456887681     A.U. after   12 cycles

      1  C    Isotropic =   175.2773   Anisotropy =    22.5840

      2  C    Isotropic =   165.3397   Anisotropy =    16.9251

      3  C    Isotropic =   125.1378   Anisotropy =    26.9127

      4  C    Isotropic =   151.0744   Anisotropy =    17.2674

      5  C    Isotropic =   119.9675   Anisotropy =    63.0990

      6  O    Isotropic =   308.6210   Anisotropy =   125.6797

      7  N    Isotropic =   204.2706   Anisotropy =    44.7043

      8  C    Isotropic =   147.7255   Anisotropy =    51.4482

      9  C    Isotropic =    54.8206   Anisotropy =   185.2908

     10  C    Isotropic =    70.5967   Anisotropy =   148.6411

     11  C    Isotropic =    19.6124   Anisotropy =    99.4696

     12  C    Isotropic =    65.7690   Anisotropy =   141.2716

     13  C    Isotropic =    18.8701   Anisotropy =    98.8019

     14  C    Isotropic =    71.0236   Anisotropy =   147.8372

     15  H    Isotropic =    24.5323   Anisotropy =     3.2034

     16  H    Isotropic =    25.1657   Anisotropy =     5.0348

     17  H    Isotropic =    25.1986   Anisotropy =     5.0319

     18  F    Isotropic =   301.4684   Anisotropy =   127.4770

     19  F    Isotropic =   306.1782   Anisotropy =   129.2768

     20  H    Isotropic =    30.8883   Anisotropy =    11.4175

     21  H    Isotropic =    31.2185   Anisotropy =     7.6607

     22  H    Isotropic =    31.3291   Anisotropy =     8.6741

     23  H    Isotropic =    30.8720   Anisotropy =     5.8796

     24  H    Isotropic =    30.4194   Anisotropy =     7.6155

     25  H    Isotropic =    29.6233   Anisotropy =     4.8869

     26  H    Isotropic =    28.3812   Anisotropy =     3.6601

     27  H    Isotropic =    28.2009   Anisotropy =     6.4650

     28  H    Isotropic =    31.5108   Anisotropy =    20.6091

     29  H    Isotropic =    28.2937   Anisotropy =     5.8030

     30  H    Isotropic =    28.6304   Anisotropy =     6.5699

     31  H    Isotropic =    28.9956   Anisotropy =     4.3037

     32  C    Isotropic =   177.7134   Anisotropy =    20.2340

     33  H    Isotropic =    30.6283   Anisotropy =     8.1705

     34  H    Isotropic =    31.7060   Anisotropy =     8.0993

     35  H    Isotropic =    31.7349   Anisotropy =    10.6676

     36  H    Isotropic =    31.2922   Anisotropy =    10.0797

 The electronic state is 1-A.
 Alpha  occ. eigenvalues --  -24.80452 -24.80136 -19.20486 -14.37541 -10.33641
 Alpha  occ. eigenvalues --  -10.33599 -10.27142 -10.26334 -10.26236 -10.25856
 Alpha  occ. eigenvalues --  -10.25733 -10.25085 -10.25041 -10.23568 -10.22466
 Alpha  occ. eigenvalues --  -10.21827 -10.21341  -1.27704  -1.27382  -1.04716
 Alpha  occ. eigenvalues --   -0.93830  -0.90249  -0.82799  -0.79993  -0.78484
 Alpha  occ. eigenvalues --   -0.78222  -0.71247  -0.69136  -0.67410  -0.65880
 Alpha  occ. eigenvalues --   -0.63622  -0.62177  -0.58896  -0.56041  -0.55689
 Alpha  occ. eigenvalues --   -0.52684  -0.51999  -0.51831  -0.50916  -0.49747
 Alpha  occ. eigenvalues --   -0.49358  -0.49267  -0.48065  -0.46852  -0.45218
 Alpha  occ. eigenvalues --   -0.43537  -0.43217  -0.42470  -0.41806  -0.41363
 Alpha  occ. eigenvalues --   -0.40814  -0.39118  -0.38439  -0.37868  -0.37702
 Alpha  occ. eigenvalues --   -0.37451  -0.36344  -0.34854  -0.34444  -0.32691
 Alpha  occ. eigenvalues --   -0.31869  -0.28287  -0.27343  -0.26636  -0.23819
 Alpha virt. eigenvalues --   -0.01876  -0.00784   0.04910   0.05478   0.06443
 Alpha virt. eigenvalues --    0.06906   0.07633   0.09920   0.10333   0.10551
 Alpha virt. eigenvalues --    0.11564   0.12104   0.12859   0.13157   0.13374

 Mulliken charges:
               1
     1  C   -0.670848
     2  C   -0.472982
     3  C   -0.086707
     4  C   -0.300912
     5  C   -0.183502
     6  O   -0.608985
     7  N   -0.550730
     8  C   -0.367316
     9  C   -0.193663
    10  C   -0.285612
    11  C    0.338501
    12  C   -0.158327
    13  C    0.335233
    14  C   -0.284512
    15  H    0.232615
    16  H    0.233776
    17  H    0.234016
    18  F   -0.235772
    19  F   -0.237403
    20  H    0.229074
    21  H    0.221902
    22  H    0.227229
    23  H    0.227866
    24  H    0.238610
    25  H    0.227863
    26  H    0.207245
    27  H    0.213386
    28  H    0.408179
    29  H    0.256028
    30  H    0.222795
    31  H    0.221694
    32  C   -0.654021
    33  H    0.240066
    34  H    0.221969
    35  H    0.221624
    36  H    0.331623
 Sum of Mulliken charges =   0.00000

 Dipole moment (field-independent basis, Debye):
    X=              0.4859    Y=              0.0168    Z=             -0.3339  Tot=              0.5898
 Quadrupole moment (field-independent basis, Debye-Ang):
   XX=            -71.1341   YY=           -101.8258   ZZ=           -105.9679
   XY=             -3.1960   XZ=              3.0071   YZ=             -2.1674

 Normal termination of Gaussian 09 at Mon Mar  4 11:28:37 2019.
