 Gaussian 09, Revision D.01,
 Gaussian 09:  ES64L-G09RevD.01 24-Apr-2013

 -------------------------------------------------------
 # mPW1PW91/6-311g(d) nmr=giao scrf=(solvent=chloroform)
 -------------------------------------------------------

 ------------
 AT3_2ginp011
 ------------
 Symbolic Z-matrix:
 Charge =  0 Multiplicity = 1

                         Standard orientation:
 ---------------------------------------------------------------------
 Center     Atomic      Atomic             Coordinates (Angstroms)
 Number     Number       Type             X           Y           Z
 ---------------------------------------------------------------------
      1          6           0       -3.615274   -2.234119   -1.101245
      2          6           0       -2.228396   -1.939203   -0.545301
      3          6           0       -1.869164   -0.434937   -0.528074
      4          6           0       -2.876771    0.444939    0.270414
      5          6           0       -2.533455    1.937998    0.112567
      6          8           0       -3.583546    2.754086    0.626304
      7          7           0       -0.513366   -0.235441    0.013273
      8          6           0        0.543837   -0.517485   -0.959738
      9          6           0        4.418426    0.421345    0.704475
     10          6           0        3.776643   -0.768232    1.044496
     11          6           0        2.527650   -1.061845    0.498489
     12          6           0        1.894929   -0.191354   -0.391175
     13          6           0        2.552653    0.995769   -0.715881
     14          6           0        3.802362    1.306086   -0.179416
     15          1           0        5.391435    0.658893    1.126688
     16          1           0        4.238062   -1.469485    1.733305
     17          1           0        4.284753    2.238946   -0.456051
     18          9           0        1.928310   -2.210614    0.845581
     19          9           0        1.990107    1.864308   -1.568550
     20          1           0       -3.750063   -3.314698   -1.215722
     21          1           0       -4.402554   -1.876454   -0.431650
     22          1           0       -3.752706   -1.770422   -2.083028
     23          1           0       -2.144627   -2.373515    0.457834
     24          1           0       -1.506847   -2.478386   -1.170714
     25          1           0       -3.876737    0.308834   -0.160853
     26          1           0       -2.420778    2.192231   -0.946472
     27          1           0       -1.604093    2.208696    0.625034
     28          1           0       -3.490673    2.763934    1.593893
     29          1           0        0.536867   -1.571054   -1.262335
     30          1           0        0.384174    0.069224   -1.872644
     31          1           0       -1.897056   -0.073796   -1.565620
     32          6           0       -2.985240    0.065357    1.754386
     33          1           0       -3.253095   -0.987585    1.880069
     34          1           0       -2.046651    0.246199    2.288019
     35          1           0       -3.766800    0.649514    2.251338
     36          1           0       -0.375624   -0.834822    0.828304
 ---------------------------------------------------------------------

 SCF Done:  E(RmPW1PW91) =  -836.457714812     A.U. after   12 cycles

      1  C    Isotropic =   175.5590   Anisotropy =    19.1676

      2  C    Isotropic =   161.5631   Anisotropy =    24.5681

      3  C    Isotropic =   122.7084   Anisotropy =    31.6373

      4  C    Isotropic =   146.3619   Anisotropy =    24.9767

      5  C    Isotropic =   116.4957   Anisotropy =    51.7007

      6  O    Isotropic =   306.7177   Anisotropy =    46.5779

      7  N    Isotropic =   200.2483   Anisotropy =    56.4561

      8  C    Isotropic =   146.4424   Anisotropy =    52.7937

      9  C    Isotropic =    54.8516   Anisotropy =   185.5631

     10  C    Isotropic =    71.1592   Anisotropy =   147.9625

     11  C    Isotropic =    19.3485   Anisotropy =    98.1087

     12  C    Isotropic =    65.5643   Anisotropy =   141.7747

     13  C    Isotropic =    19.6413   Anisotropy =   100.2827

     14  C    Isotropic =    70.6016   Anisotropy =   148.8952

     15  H    Isotropic =    24.5517   Anisotropy =     3.2106

     16  H    Isotropic =    25.2417   Anisotropy =     5.0296

     17  H    Isotropic =    25.2089   Anisotropy =     4.8433

     18  F    Isotropic =   306.7825   Anisotropy =   126.7481

     19  F    Isotropic =   301.0278   Anisotropy =   126.8415

     20  H    Isotropic =    30.9802   Anisotropy =    11.2975

     21  H    Isotropic =    31.0717   Anisotropy =     7.2039

     22  H    Isotropic =    31.3980   Anisotropy =     9.2273

     23  H    Isotropic =    30.8737   Anisotropy =     4.9963

     24  H    Isotropic =    29.7951   Anisotropy =     6.0286

     25  H    Isotropic =    30.2053   Anisotropy =     5.4879

     26  H    Isotropic =    28.4937   Anisotropy =     4.8049

     27  H    Isotropic =    28.2585   Anisotropy =     8.0152

     28  H    Isotropic =    31.3830   Anisotropy =    15.2359

     29  H    Isotropic =    28.0673   Anisotropy =     5.3840

     30  H    Isotropic =    28.8298   Anisotropy =     7.2379

     31  H    Isotropic =    29.5854   Anisotropy =     2.2377

     32  C    Isotropic =   179.2853   Anisotropy =    18.5863

     33  H    Isotropic =    31.2528   Anisotropy =     7.9262

     34  H    Isotropic =    31.8392   Anisotropy =     7.3412

     35  H    Isotropic =    31.2215   Anisotropy =     9.5864

     36  H    Isotropic =    32.1374   Anisotropy =     9.0541

 The electronic state is 1-A.
 Alpha  occ. eigenvalues --  -24.80562 -24.80175 -19.20220 -14.37723 -10.33729
 Alpha  occ. eigenvalues --  -10.33686 -10.26651 -10.26531 -10.26313 -10.26230
 Alpha  occ. eigenvalues --  -10.25938 -10.25175 -10.25124 -10.23165 -10.22613
 Alpha  occ. eigenvalues --  -10.21894 -10.21748  -1.27809  -1.27447  -1.04331
 Alpha  occ. eigenvalues --   -0.94241  -0.90392  -0.83052  -0.79810  -0.78574
 Alpha  occ. eigenvalues --   -0.78103  -0.71590  -0.70001  -0.67103  -0.65966
 Alpha  occ. eigenvalues --   -0.63683  -0.62318  -0.59064  -0.57617  -0.55631
 Alpha  occ. eigenvalues --   -0.52518  -0.52123  -0.51919  -0.51205  -0.49626
 Alpha  occ. eigenvalues --   -0.49419  -0.47983  -0.47312  -0.46901  -0.45557
 Alpha  occ. eigenvalues --   -0.45117  -0.43138  -0.42266  -0.42115  -0.41376
 Alpha  occ. eigenvalues --   -0.40505  -0.39510  -0.38432  -0.38291  -0.37566
 Alpha  occ. eigenvalues --   -0.37539  -0.36341  -0.35643  -0.35059  -0.32970
 Alpha  occ. eigenvalues --   -0.32555  -0.28109  -0.27432  -0.26724  -0.23464
 Alpha virt. eigenvalues --   -0.01960  -0.00873   0.04827   0.05645   0.06278
 Alpha virt. eigenvalues --    0.07190   0.07501   0.08846   0.10439   0.10911
 Alpha virt. eigenvalues --    0.11370   0.11648   0.12247   0.13200   0.13383

 Mulliken charges:
               1
     1  C   -0.667022
     2  C   -0.453015
     3  C   -0.142448
     4  C   -0.256005
     5  C   -0.197687
     6  O   -0.598853
     7  N   -0.537217
     8  C   -0.359444
     9  C   -0.194133
    10  C   -0.283597
    11  C    0.341724
    12  C   -0.160391
    13  C    0.332500
    14  C   -0.287723
    15  H    0.232999
    16  H    0.234059
    17  H    0.234283
    18  F   -0.237899
    19  F   -0.234730
    20  H    0.225634
    21  H    0.230791
    22  H    0.225247
    23  H    0.220494
    24  H    0.233329
    25  H    0.232499
    26  H    0.218289
    27  H    0.216796
    28  H    0.404238
    29  H    0.226967
    30  H    0.248445
    31  H    0.234129
    32  C   -0.704352
    33  H    0.238630
    34  H    0.229274
    35  H    0.224337
    36  H    0.329854
 Sum of Mulliken charges =   0.00000

 Dipole moment (field-independent basis, Debye):
    X=              2.3810    Y=             -1.9968    Z=              1.3648  Tot=              3.3940
 Quadrupole moment (field-independent basis, Debye-Ang):
   XX=            -97.5341   YY=           -108.2349   ZZ=            -97.1138
   XY=             10.0025   XZ=              1.1675   YZ=              3.3358

 Normal termination of Gaussian 09 at Mon Mar  4 11:28:34 2019.
