 Gaussian 09, Revision D.01,
 Gaussian 09:  ES64L-G09RevD.01 24-Apr-2013

 -------------------------------------------------------
 # mPW1PW91/6-311g(d) nmr=giao scrf=(solvent=chloroform)
 -------------------------------------------------------

 ------------
 AT3_1ginp001
 ------------
 Symbolic Z-matrix:
 Charge =  0 Multiplicity = 1

                         Standard orientation:
 ---------------------------------------------------------------------
 Center     Atomic      Atomic             Coordinates (Angstroms)
 Number     Number       Type             X           Y           Z
 ---------------------------------------------------------------------
      1          6           0        2.583308    2.558459   -0.098118
      2          6           0        2.502025    1.517808    1.011577
      3          6           0        2.035641    0.108671    0.569890
      4          6           0        2.985145   -0.571415   -0.472385
      5          6           0        2.552949   -2.021112   -0.781516
      6          8           0        1.317349   -2.059635   -1.484120
      7          7           0        0.663236    0.114636    0.023985
      8          6           0       -0.366037    0.394462    1.028782
      9          6           0       -4.293576   -0.195207   -0.668366
     10          6           0       -3.727966   -1.175129    0.146265
     11          6           0       -2.461452   -0.976311    0.695400
     12          6           0       -1.736878    0.190975    0.451478
     13          6           0       -2.320112    1.158371   -0.369205
     14          6           0       -3.585144    0.977119   -0.926527
     15          1           0       -5.278825   -0.346416   -1.101872
     16          1           0       -4.262285   -2.096877    0.356888
     17          1           0       -4.006492    1.750541   -1.561677
     18          9           0       -1.946681   -1.933638    1.480445
     19          9           0       -1.655261    2.292370   -0.636402
     20          1           0        1.604931    2.744870   -0.550087
     21          1           0        2.941233    3.508861    0.311683
     22          1           0        3.279369    2.256885   -0.885575
     23          1           0        3.482675    1.443130    1.495565
     24          1           0        1.836510    1.899641    1.794868
     25          1           0        2.937798   -0.004127   -1.411518
     26          1           0        2.447696   -2.607871    0.137503
     27          1           0        3.294077   -2.520399   -1.414095
     28          1           0        0.721338   -1.450214   -0.995240
     29          1           0       -0.236989   -0.260221    1.899150
     30          1           0       -0.292771    1.424078    1.397439
     31          1           0        2.043814   -0.529699    1.464383
     32          6           0        4.443095   -0.595233    0.002297
     33          1           0        5.073764   -1.149774   -0.701318
     34          1           0        4.860908    0.413358    0.069894
     35          1           0        4.532046   -1.072902    0.983760
     36          1           0        0.591245    0.814420   -0.718503
 ---------------------------------------------------------------------

 SCF Done:  E(RmPW1PW91) =  -836.466734629     A.U. after   12 cycles

      1  C    Isotropic =   182.2754   Anisotropy =    10.4729

      2  C    Isotropic =   166.8086   Anisotropy =    21.2741

      3  C    Isotropic =   118.9643   Anisotropy =    34.4316

      4  C    Isotropic =   147.8026   Anisotropy =    15.0159

      5  C    Isotropic =   114.0944   Anisotropy =    54.7185

      6  O    Isotropic =   286.6983   Anisotropy =    77.2908

      7  N    Isotropic =   204.3273   Anisotropy =    42.0251

      8  C    Isotropic =   148.3201   Anisotropy =    50.5213

      9  C    Isotropic =    54.1147   Anisotropy =   186.6036

     10  C    Isotropic =    70.2922   Anisotropy =   149.5440

     11  C    Isotropic =    19.9017   Anisotropy =   100.0256

     12  C    Isotropic =    66.5833   Anisotropy =   140.5052

     13  C    Isotropic =    19.7025   Anisotropy =    97.7230

     14  C    Isotropic =    70.9411   Anisotropy =   148.5560

     15  H    Isotropic =    24.5163   Anisotropy =     3.1984

     16  H    Isotropic =    25.1726   Anisotropy =     4.8997

     17  H    Isotropic =    25.1940   Anisotropy =     5.1157

     18  F    Isotropic =   300.4898   Anisotropy =   127.9320

     19  F    Isotropic =   305.7803   Anisotropy =   127.4337

     20  H    Isotropic =    31.1929   Anisotropy =     8.1411

     21  H    Isotropic =    31.1335   Anisotropy =    11.5408

     22  H    Isotropic =    31.3328   Anisotropy =     7.9829

     23  H    Isotropic =    30.6015   Anisotropy =     7.7578

     24  H    Isotropic =    30.0261   Anisotropy =     6.6044

     25  H    Isotropic =    30.3768   Anisotropy =     3.3807

     26  H    Isotropic =    28.2214   Anisotropy =     4.9775

     27  H    Isotropic =    28.5550   Anisotropy =     6.7193

     28  H    Isotropic =    27.7490   Anisotropy =    25.3294

     29  H    Isotropic =    28.7083   Anisotropy =     7.4106

     30  H    Isotropic =    28.1322   Anisotropy =     5.1420

     31  H    Isotropic =    29.2988   Anisotropy =     2.8528

     32  C    Isotropic =   172.6214   Anisotropy =    26.1607

     33  H    Isotropic =    31.4552   Anisotropy =    10.6872

     34  H    Isotropic =    31.1165   Anisotropy =     7.9374

     35  H    Isotropic =    31.7223   Anisotropy =     8.8155

     36  H    Isotropic =    30.8821   Anisotropy =     7.3508

 The electronic state is 1-A.
 Alpha  occ. eigenvalues --  -24.80836 -24.80388 -19.17352 -14.39740 -10.33972
 Alpha  occ. eigenvalues --  -10.33912 -10.27436 -10.27038 -10.26621 -10.26227
 Alpha  occ. eigenvalues --  -10.26095 -10.25331 -10.25271 -10.23726 -10.22993
 Alpha  occ. eigenvalues --  -10.22228 -10.22084  -1.28065  -1.27657  -1.02205
 Alpha  occ. eigenvalues --   -0.95381  -0.90664  -0.83460  -0.80395  -0.78760
 Alpha  occ. eigenvalues --   -0.78327  -0.72321  -0.68656  -0.68192  -0.66206
 Alpha  occ. eigenvalues --   -0.64539  -0.62182  -0.59317  -0.58286  -0.55990
 Alpha  occ. eigenvalues --   -0.52394  -0.52218  -0.52102  -0.51062  -0.49809
 Alpha  occ. eigenvalues --   -0.49531  -0.49023  -0.47170  -0.46749  -0.45282
 Alpha  occ. eigenvalues --   -0.44879  -0.43810  -0.42597  -0.41993  -0.41624
 Alpha  occ. eigenvalues --   -0.41562  -0.39752  -0.39151  -0.38582  -0.38027
 Alpha  occ. eigenvalues --   -0.37069  -0.36590  -0.35915  -0.35167  -0.33269
 Alpha  occ. eigenvalues --   -0.32688  -0.27708  -0.26889  -0.26349  -0.24949
 Alpha virt. eigenvalues --   -0.02204  -0.01051   0.04628   0.05846   0.06250
 Alpha virt. eigenvalues --    0.07123   0.08357   0.09848   0.10438   0.10903
 Alpha virt. eigenvalues --    0.11274   0.11438   0.12608   0.12954   0.13264

 Mulliken charges:
               1
     1  C   -0.672700
     2  C   -0.470671
     3  C   -0.097485
     4  C   -0.316854
     5  C   -0.164158
     6  O   -0.624283
     7  N   -0.606663
     8  C   -0.363822
     9  C   -0.191864
    10  C   -0.285299
    11  C    0.333756
    12  C   -0.157101
    13  C    0.346396
    14  C   -0.281334
    15  H    0.234603
    16  H    0.236054
    17  H    0.235758
    18  F   -0.234719
    19  F   -0.236032
    20  H    0.219843
    21  H    0.234334
    22  H    0.234196
    23  H    0.239859
    24  H    0.234877
    25  H    0.223667
    26  H    0.194528
    27  H    0.214055
    28  H    0.409319
    29  H    0.256261
    30  H    0.244011
    31  H    0.241897
    32  C   -0.673750
    33  H    0.232268
    34  H    0.237649
    35  H    0.225689
    36  H    0.347716
 Sum of Mulliken charges =   0.00000

 Dipole moment (field-independent basis, Debye):
    X=             -0.8624    Y=              2.9430    Z=              1.9138  Tot=              3.6149
 Quadrupole moment (field-independent basis, Debye-Ang):
   XX=            -83.5308   YY=           -108.7629   ZZ=           -105.4351
   XY=              3.7028   XZ=              7.0071   YZ=             -5.1249

 Normal termination of Gaussian 09 at Mon Mar  4 11:28:45 2019.
