 Gaussian 09, Revision D.01,
 Gaussian 09:  ES64L-G09RevD.01 24-Apr-2013

 -------------------------------------------------------
 # mPW1PW91/6-311g(d) nmr=giao scrf=(solvent=chloroform)
 -------------------------------------------------------

 ------------
 AT3_1ginp015
 ------------
 Symbolic Z-matrix:
 Charge =  0 Multiplicity = 1

                         Standard orientation:
 ---------------------------------------------------------------------
 Center     Atomic      Atomic             Coordinates (Angstroms)
 Number     Number       Type             X           Y           Z
 ---------------------------------------------------------------------
      1          6           0       -1.716790   -0.547788    2.966282
      2          6           0       -1.278032   -1.044282    1.595543
      3          6           0       -1.318689    0.039870    0.491135
      4          6           0       -2.734208    0.663935    0.284686
      5          6           0       -3.797002   -0.343897   -0.187665
      6          8           0       -3.509230   -0.866279   -1.478396
      7          7           0       -0.814627   -0.564437   -0.762148
      8          6           0        0.269755    0.208990   -1.389202
      9          6           0        4.049395   -0.010629    0.697676
     10          6           0        3.504278   -1.151632    0.111966
     11          6           0        2.284046   -1.070953   -0.557738
     12          6           0        1.581398    0.131501   -0.658391
     13          6           0        2.147066    1.262188   -0.066955
     14          6           0        3.366531    1.201064    0.606978
     15          1           0        5.000639   -0.065055    1.221066
     16          1           0        4.020297   -2.105460    0.171162
     17          1           0        3.774763    2.101772    1.056168
     18          9           0        1.778088   -2.185151   -1.106195
     19          9           0        1.512652    2.441352   -0.134677
     20          1           0       -2.787604   -0.326954    2.990966
     21          1           0       -1.524582   -1.317034    3.721398
     22          1           0       -1.166197    0.353217    3.254047
     23          1           0       -0.247361   -1.411237    1.692332
     24          1           0       -1.886855   -1.912511    1.316898
     25          1           0       -3.071274    1.059773    1.250502
     26          1           0       -4.779259    0.137851   -0.239212
     27          1           0       -3.887851   -1.182566    0.508446
     28          1           0       -2.530657   -0.927019   -1.533954
     29          1           0        0.424497   -0.188643   -2.400152
     30          1           0       -0.038078    1.249878   -1.537888
     31          1           0       -0.653815    0.846289    0.826819
     32          6           0       -2.688445    1.866083   -0.669974
     33          1           0       -2.434199    1.575060   -1.693720
     34          1           0       -3.663565    2.364495   -0.702133
     35          1           0       -1.952824    2.602836   -0.330321
     36          1           0       -0.452327   -1.505911   -0.588414
 ---------------------------------------------------------------------

 SCF Done:  E(RmPW1PW91) =  -836.464675151     A.U. after   12 cycles

      1  C    Isotropic =   175.2023   Anisotropy =    19.9520

      2  C    Isotropic =   156.6685   Anisotropy =    34.7120

      3  C    Isotropic =   122.7528   Anisotropy =    25.8225

      4  C    Isotropic =   151.9882   Anisotropy =     9.0228

      5  C    Isotropic =   122.6262   Anisotropy =    56.9979

      6  O    Isotropic =   317.1566   Anisotropy =    99.2155

      7  N    Isotropic =   195.3615   Anisotropy =    29.1265

      8  C    Isotropic =   144.8548   Anisotropy =    53.2586

      9  C    Isotropic =    54.3059   Anisotropy =   186.5204

     10  C    Isotropic =    70.2604   Anisotropy =   149.3753

     11  C    Isotropic =    19.1682   Anisotropy =    97.9083

     12  C    Isotropic =    66.7332   Anisotropy =   141.6735

     13  C    Isotropic =    20.1948   Anisotropy =   101.5189

     14  C    Isotropic =    70.9417   Anisotropy =   149.0438

     15  H    Isotropic =    24.5121   Anisotropy =     3.1299

     16  H    Isotropic =    25.1452   Anisotropy =     4.9158

     17  H    Isotropic =    25.1781   Anisotropy =     4.8818

     18  F    Isotropic =   305.8058   Anisotropy =   142.0593

     19  F    Isotropic =   302.3981   Anisotropy =   121.4956

     20  H    Isotropic =    31.3775   Anisotropy =     8.2907

     21  H    Isotropic =    31.2879   Anisotropy =    11.4221

     22  H    Isotropic =    31.7115   Anisotropy =     7.9034

     23  H    Isotropic =    31.0640   Anisotropy =     7.2983

     24  H    Isotropic =    30.4391   Anisotropy =     5.3064

     25  H    Isotropic =    30.6461   Anisotropy =     6.7851

     26  H    Isotropic =    28.6359   Anisotropy =     8.5397

     27  H    Isotropic =    27.9590   Anisotropy =     5.2000

     28  H    Isotropic =    27.9585   Anisotropy =    24.3912

     29  H    Isotropic =    28.3002   Anisotropy =     7.7567

     30  H    Isotropic =    28.2643   Anisotropy =     4.7694

     31  H    Isotropic =    29.6740   Anisotropy =     6.0548

     32  C    Isotropic =   170.0091   Anisotropy =    26.0050

     33  H    Isotropic =    30.0717   Anisotropy =     4.3429

     34  H    Isotropic =    30.9450   Anisotropy =    11.4006

     35  H    Isotropic =    31.0871   Anisotropy =     7.9952

     36  H    Isotropic =    30.9146   Anisotropy =    10.4765

 The electronic state is 1-A.
 Alpha  occ. eigenvalues --  -24.81138 -24.80697 -19.17803 -14.39635 -10.34188
 Alpha  occ. eigenvalues --  -10.34087 -10.27461 -10.26846 -10.26699 -10.26273
 Alpha  occ. eigenvalues --  -10.26225 -10.25550 -10.25487 -10.23517 -10.23312
 Alpha  occ. eigenvalues --  -10.22083 -10.21506  -1.28386  -1.27968  -1.02511
 Alpha  occ. eigenvalues --   -0.95208  -0.90781  -0.83235  -0.80380  -0.78971
 Alpha  occ. eigenvalues --   -0.78493  -0.72327  -0.69077  -0.67768  -0.66352
 Alpha  occ. eigenvalues --   -0.64129  -0.62803  -0.59481  -0.58391  -0.55956
 Alpha  occ. eigenvalues --   -0.52746  -0.52329  -0.52051  -0.51018  -0.50093
 Alpha  occ. eigenvalues --   -0.49416  -0.47769  -0.47401  -0.47240  -0.46368
 Alpha  occ. eigenvalues --   -0.45072  -0.44591  -0.42418  -0.41864  -0.41503
 Alpha  occ. eigenvalues --   -0.40671  -0.39860  -0.38665  -0.38292  -0.38136
 Alpha  occ. eigenvalues --   -0.38059  -0.37202  -0.36213  -0.33798  -0.33204
 Alpha  occ. eigenvalues --   -0.32285  -0.28035  -0.27135  -0.26449  -0.25217
 Alpha virt. eigenvalues --   -0.02465  -0.01283   0.05072   0.05548   0.06932
 Alpha virt. eigenvalues --    0.07169   0.08032   0.10123   0.10155   0.10577
 Alpha virt. eigenvalues --    0.11016   0.11248   0.11881   0.13102   0.13370

 Mulliken charges:
               1
     1  C   -0.667125
     2  C   -0.488294
     3  C   -0.091584
     4  C   -0.316177
     5  C   -0.180236
     6  O   -0.622708
     7  N   -0.612795
     8  C   -0.402096
     9  C   -0.190511
    10  C   -0.281644
    11  C    0.341243
    12  C   -0.169823
    13  C    0.339452
    14  C   -0.284112
    15  H    0.235120
    16  H    0.237014
    17  H    0.235956
    18  F   -0.234943
    19  F   -0.236262
    20  H    0.231017
    21  H    0.229692
    22  H    0.226085
    23  H    0.236407
    24  H    0.236870
    25  H    0.235718
    26  H    0.215285
    27  H    0.208146
    28  H    0.413131
    29  H    0.259198
    30  H    0.275974
    31  H    0.245582
    32  C   -0.660751
    33  H    0.230320
    34  H    0.228530
    35  H    0.224304
    36  H    0.354017
 Sum of Mulliken charges =   0.00000

 Dipole moment (field-independent basis, Debye):
    X=              4.7085    Y=              0.4876    Z=              3.2660  Tot=              5.7510
 Quadrupole moment (field-independent basis, Debye-Ang):
   XX=           -102.3982   YY=           -103.2137   ZZ=           -104.9718
   XY=             -5.6058   XZ=             -5.9899   YZ=             -2.6636

 Normal termination of Gaussian 09 at Mon Mar  4 11:29:41 2019.
