 Gaussian 09, Revision D.01,
 Gaussian 09:  ES64L-G09RevD.01 24-Apr-2013

 -------------------------------------------------------
 # mPW1PW91/6-311g(d) nmr=giao scrf=(solvent=chloroform)
 -------------------------------------------------------

 ------------
 AT3_1ginp004
 ------------
 Symbolic Z-matrix:
 Charge =  0 Multiplicity = 1

                         Standard orientation:
 ---------------------------------------------------------------------
 Center     Atomic      Atomic             Coordinates (Angstroms)
 Number     Number       Type             X           Y           Z
 ---------------------------------------------------------------------
      1          6           0        2.153927    2.744899    0.894962
      2          6           0        1.636401    1.845865   -0.221164
      3          6           0        1.300401    0.402300    0.229291
      4          6           0        2.504967   -0.303937    0.937578
      5          6           0        3.748311   -0.462529    0.044706
      6          8           0        3.492923   -1.276417   -1.091973
      7          7           0        0.833444   -0.411202   -0.916468
      8          6           0       -0.427458    0.029487   -1.533227
      9          6           0       -3.889548   -0.256147    1.037857
     10          6           0       -3.457486    0.986392    0.577089
     11          6           0       -2.338855    1.069485   -0.251761
     12          6           0       -1.628599   -0.068705   -0.636137
     13          6           0       -2.081148   -1.303375   -0.165860
     14          6           0       -3.197081   -1.406107    0.663554
     15          1           0       -4.760996   -0.327711    1.683769
     16          1           0       -3.984343    1.894231    0.856293
     17          1           0       -3.517340   -2.383950    1.011130
     18          9           0       -1.948701    2.279008   -0.678292
     19          9           0       -1.429369   -2.424716   -0.506806
     20          1           0        3.156058    2.451327    1.219696
     21          1           0        2.217664    3.779366    0.541484
     22          1           0        1.483457    2.724171    1.759748
     23          1           0        0.735045    2.328225   -0.614745
     24          1           0        2.363200    1.836151   -1.042031
     25          1           0        2.798974    0.314896    1.794407
     26          1           0        4.563098   -0.928662    0.608940
     27          1           0        4.114949    0.507137   -0.304577
     28          1           0        2.642494   -0.960525   -1.466038
     29          1           0       -0.324460    1.032216   -1.960502
     30          1           0       -0.611373   -0.615550   -2.402460
     31          1           0        0.497740    0.463614    0.975690
     32          6           0        2.101825   -1.662520    1.534188
     33          1           0        1.207468   -1.562931    2.158199
     34          1           0        1.902605   -2.416926    0.767232
     35          1           0        2.906143   -2.049820    2.169565
     36          1           0        0.680820   -1.374784   -0.605312
 ---------------------------------------------------------------------

 SCF Done:  E(RmPW1PW91) =  -836.465035308     A.U. after   12 cycles

      1  C    Isotropic =   176.6220   Anisotropy =    16.5229

      2  C    Isotropic =   163.2157   Anisotropy =    20.0566

      3  C    Isotropic =   125.4232   Anisotropy =    15.9047

      4  C    Isotropic =   150.9159   Anisotropy =    12.5747

      5  C    Isotropic =   122.8855   Anisotropy =    55.5522

      6  O    Isotropic =   304.5148   Anisotropy =   117.6149

      7  N    Isotropic =   196.2187   Anisotropy =    36.0984

      8  C    Isotropic =   149.8343   Anisotropy =    46.9474

      9  C    Isotropic =    54.3358   Anisotropy =   186.2487

     10  C    Isotropic =    71.0460   Anisotropy =   148.6993

     11  C    Isotropic =    19.6297   Anisotropy =   101.0470

     12  C    Isotropic =    67.6064   Anisotropy =   138.3710

     13  C    Isotropic =    19.2031   Anisotropy =    97.3399

     14  C    Isotropic =    70.2580   Anisotropy =   149.2321

     15  H    Isotropic =    24.5338   Anisotropy =     3.0933

     16  H    Isotropic =    25.2174   Anisotropy =     4.8651

     17  H    Isotropic =    25.1544   Anisotropy =     5.0376

     18  F    Isotropic =   301.2216   Anisotropy =   125.7914

     19  F    Isotropic =   304.8695   Anisotropy =   145.8766

     20  H    Isotropic =    31.2892   Anisotropy =     8.1004

     21  H    Isotropic =    31.0208   Anisotropy =    11.3561

     22  H    Isotropic =    31.6174   Anisotropy =     8.5067

     23  H    Isotropic =    29.9396   Anisotropy =     7.7932

     24  H    Isotropic =    30.6879   Anisotropy =     6.4013

     25  H    Isotropic =    30.4581   Anisotropy =     6.5540

     26  H    Isotropic =    28.8072   Anisotropy =     8.4990

     27  H    Isotropic =    27.9540   Anisotropy =     5.4183

     28  H    Isotropic =    29.2815   Anisotropy =    21.7761

     29  H    Isotropic =    28.0612   Anisotropy =     5.8996

     30  H    Isotropic =    28.1841   Anisotropy =     8.0139

     31  H    Isotropic =    29.7234   Anisotropy =     5.0598

     32  C    Isotropic =   171.4442   Anisotropy =    27.8005

     33  H    Isotropic =    31.7239   Anisotropy =     7.8864

     34  H    Isotropic =    30.5250   Anisotropy =     5.3609

     35  H    Isotropic =    31.0757   Anisotropy =    11.5793

     36  H    Isotropic =    30.0359   Anisotropy =     9.7464

 The electronic state is 1-A.
 Alpha  occ. eigenvalues --  -24.81084 -24.80703 -19.18487 -14.39558 -10.34139
 Alpha  occ. eigenvalues --  -10.34040 -10.27389 -10.26838 -10.26643 -10.26523
 Alpha  occ. eigenvalues --  -10.26230 -10.25509 -10.25451 -10.23956 -10.22889
 Alpha  occ. eigenvalues --  -10.21991 -10.21935  -1.28330  -1.27972  -1.03092
 Alpha  occ. eigenvalues --   -0.95017  -0.90722  -0.83237  -0.80376  -0.78931
 Alpha  occ. eigenvalues --   -0.78509  -0.72285  -0.69524  -0.67910  -0.66309
 Alpha  occ. eigenvalues --   -0.64474  -0.62174  -0.59468  -0.57602  -0.56133
 Alpha  occ. eigenvalues --   -0.52526  -0.52297  -0.52008  -0.50893  -0.50262
 Alpha  occ. eigenvalues --   -0.49751  -0.49078  -0.47555  -0.46877  -0.46268
 Alpha  occ. eigenvalues --   -0.45408  -0.44220  -0.42450  -0.42016  -0.41804
 Alpha  occ. eigenvalues --   -0.40480  -0.39564  -0.38620  -0.38361  -0.38298
 Alpha  occ. eigenvalues --   -0.37697  -0.37371  -0.35748  -0.34328  -0.33176
 Alpha  occ. eigenvalues --   -0.32154  -0.27968  -0.27125  -0.27049  -0.25255
 Alpha virt. eigenvalues --   -0.02404  -0.01252   0.05068   0.05574   0.06512
 Alpha virt. eigenvalues --    0.07246   0.08328   0.10006   0.10523   0.10634
 Alpha virt. eigenvalues --    0.11433   0.11573   0.12335   0.12952   0.13183

 Mulliken charges:
               1
     1  C   -0.669688
     2  C   -0.450904
     3  C   -0.102203
     4  C   -0.332291
     5  C   -0.190451
     6  O   -0.615596
     7  N   -0.598841
     8  C   -0.399334
     9  C   -0.194312
    10  C   -0.280549
    11  C    0.339673
    12  C   -0.184704
    13  C    0.339840
    14  C   -0.277845
    15  H    0.234880
    16  H    0.236031
    17  H    0.237213
    18  F   -0.233094
    19  F   -0.234623
    20  H    0.228688
    21  H    0.230143
    22  H    0.225948
    23  H    0.236592
    24  H    0.231480
    25  H    0.243969
    26  H    0.219244
    27  H    0.214303
    28  H    0.403651
    29  H    0.272275
    30  H    0.264367
    31  H    0.230617
    32  C   -0.667540
    33  H    0.229908
    34  H    0.229792
    35  H    0.232999
    36  H    0.350364
 Sum of Mulliken charges =   0.00000

 Dipole moment (field-independent basis, Debye):
    X=             -4.0907    Y=              1.5351    Z=              2.5579  Tot=              5.0629
 Quadrupole moment (field-independent basis, Debye-Ang):
   XX=           -102.2223   YY=           -105.1459   ZZ=           -101.3839
   XY=              8.5012   XZ=              2.4276   YZ=             -3.2923

 Normal termination of Gaussian 09 at Mon Mar  4 11:29:49 2019.
