 Gaussian 09, Revision D.01,
 Gaussian 09:  ES64L-G09RevD.01 24-Apr-2013

 -------------------------------------------------------
 # mPW1PW91/6-311g(d) nmr=giao scrf=(solvent=chloroform)
 -------------------------------------------------------

 ------------
 AT3_2ginp012
 ------------
 Symbolic Z-matrix:
 Charge =  0 Multiplicity = 1

                         Standard orientation:
 ---------------------------------------------------------------------
 Center     Atomic      Atomic             Coordinates (Angstroms)
 Number     Number       Type             X           Y           Z
 ---------------------------------------------------------------------
      1          6           0        1.611455    3.253987   -0.697400
      2          6           0        2.418845    2.173041    0.010748
      3          6           0        1.973644    0.735941   -0.344778
      4          6           0        2.975473   -0.320730    0.204167
      5          6           0        2.608362   -1.729990   -0.287787
      6          8           0        3.682574   -2.629464   -0.024644
      7          7           0        0.619405    0.452002    0.153763
      8          6           0       -0.368769    0.351865   -0.920619
      9          6           0       -4.232140   -0.722794    0.680665
     10          6           0       -3.394436   -1.704290    0.152752
     11          6           0       -2.149650   -1.349429   -0.366829
     12          6           0       -1.716117   -0.022876   -0.377068
     13          6           0       -2.567488    0.943667    0.160887
     14          6           0       -3.815202    0.607307    0.684544
     15          1           0       -5.202372   -0.993597    1.089081
     16          1           0       -3.699543   -2.746468    0.143100
     17          1           0       -4.451108    1.386124    1.094740
     18          9           0       -1.368203   -2.315158   -0.872350
     19          9           0       -2.186841    2.229592    0.181553
     20          1           0        2.035158    4.239972   -0.480718
     21          1           0        1.628266    3.110136   -1.782254
     22          1           0        0.569921    3.261896   -0.362928
     23          1           0        3.473146    2.299000   -0.265201
     24          1           0        2.353086    2.345965    1.091357
     25          1           0        3.970770   -0.082238   -0.196412
     26          1           0        2.434395   -1.731026   -1.368833
     27          1           0        1.711631   -2.110299    0.212974
     28          1           0        3.371333   -3.515161   -0.278501
     29          1           0       -0.451058    1.297939   -1.469049
     30          1           0       -0.056272   -0.402860   -1.653230
     31          1           0        2.001936    0.653705   -1.440637
     32          6           0        3.110262   -0.314971    1.734447
     33          1           0        2.158601   -0.542823    2.225366
     34          1           0        3.840494   -1.061510    2.064933
     35          1           0        3.460891    0.654222    2.100820
     36          1           0        0.324263    1.174436    0.811010
 ---------------------------------------------------------------------

 SCF Done:  E(RmPW1PW91) =  -836.456871374     A.U. after   12 cycles

      1  C    Isotropic =   174.3418   Anisotropy =    20.0982

      2  C    Isotropic =   155.3920   Anisotropy =    29.3717

      3  C    Isotropic =   122.3571   Anisotropy =    17.9943

      4  C    Isotropic =   141.8393   Anisotropy =    30.5165

      5  C    Isotropic =   117.0463   Anisotropy =    51.4648

      6  O    Isotropic =   307.6360   Anisotropy =   118.5286

      7  N    Isotropic =   207.4236   Anisotropy =    63.5571

      8  C    Isotropic =   143.6044   Anisotropy =    56.3313

      9  C    Isotropic =    54.7251   Anisotropy =   185.3928

     10  C    Isotropic =    70.5921   Anisotropy =   148.8427

     11  C    Isotropic =    19.4969   Anisotropy =    99.8513

     12  C    Isotropic =    66.2288   Anisotropy =   141.3219

     13  C    Isotropic =    19.4926   Anisotropy =    98.3169

     14  C    Isotropic =    71.1073   Anisotropy =   148.1290

     15  H    Isotropic =    24.5609   Anisotropy =     3.2159

     16  H    Isotropic =    25.2003   Anisotropy =     5.0219

     17  H    Isotropic =    25.2222   Anisotropy =     5.0711

     18  F    Isotropic =   302.5804   Anisotropy =   128.7476

     19  F    Isotropic =   307.2868   Anisotropy =   124.5699

     20  H    Isotropic =    30.8458   Anisotropy =    11.2322

     21  H    Isotropic =    31.0180   Anisotropy =     7.7966

     22  H    Isotropic =    30.6088   Anisotropy =     7.4794

     23  H    Isotropic =    30.5912   Anisotropy =     8.6199

     24  H    Isotropic =    30.5423   Anisotropy =     5.2068

     25  H    Isotropic =    30.4550   Anisotropy =     6.4753

     26  H    Isotropic =    28.1280   Anisotropy =     5.6276

     27  H    Isotropic =    28.1618   Anisotropy =     7.7686

     28  H    Isotropic =    31.4327   Anisotropy =    19.3733

     29  H    Isotropic =    28.0771   Anisotropy =     5.0417

     30  H    Isotropic =    28.7492   Anisotropy =     5.9907

     31  H    Isotropic =    29.5566   Anisotropy =     2.2726

     32  C    Isotropic =   176.8867   Anisotropy =    20.7801

     33  H    Isotropic =    31.4108   Anisotropy =     6.2743

     34  H    Isotropic =    30.8094   Anisotropy =     9.6000

     35  H    Isotropic =    31.4135   Anisotropy =     8.6427

     36  H    Isotropic =    32.0150   Anisotropy =     8.9525

 The electronic state is 1-A.
 Alpha  occ. eigenvalues --  -24.80629 -24.80323 -19.19956 -14.37763 -10.33792
 Alpha  occ. eigenvalues --  -10.33755 -10.26701 -10.26390 -10.26330 -10.26142
 Alpha  occ. eigenvalues --  -10.25997 -10.25218 -10.25181 -10.22987 -10.22798
 Alpha  occ. eigenvalues --  -10.21868 -10.20787  -1.27861  -1.27549  -1.04103
 Alpha  occ. eigenvalues --   -0.94324  -0.90446  -0.82944  -0.79715  -0.78636
 Alpha  occ. eigenvalues --   -0.78278  -0.71435  -0.69171  -0.67588  -0.66049
 Alpha  occ. eigenvalues --   -0.63740  -0.61310  -0.59098  -0.57484  -0.55841
 Alpha  occ. eigenvalues --   -0.52564  -0.51993  -0.51688  -0.51246  -0.49635
 Alpha  occ. eigenvalues --   -0.49295  -0.48985  -0.47004  -0.46783  -0.45833
 Alpha  occ. eigenvalues --   -0.44040  -0.43791  -0.42580  -0.41497  -0.41476
 Alpha  occ. eigenvalues --   -0.41056  -0.39197  -0.38311  -0.38041  -0.37664
 Alpha  occ. eigenvalues --   -0.37468  -0.35685  -0.35376  -0.33968  -0.33236
 Alpha  occ. eigenvalues --   -0.31989  -0.27743  -0.27541  -0.26785  -0.23667
 Alpha virt. eigenvalues --   -0.02048  -0.00915   0.05228   0.05729   0.06178
 Alpha virt. eigenvalues --    0.07125   0.07719   0.08755   0.10407   0.10885
 Alpha virt. eigenvalues --    0.11361   0.11665   0.12140   0.12904   0.13424

 Mulliken charges:
               1
     1  C   -0.659991
     2  C   -0.476988
     3  C   -0.136286
     4  C   -0.238912
     5  C   -0.176038
     6  O   -0.616158
     7  N   -0.537137
     8  C   -0.366811
     9  C   -0.194039
    10  C   -0.284560
    11  C    0.336983
    12  C   -0.169027
    13  C    0.338065
    14  C   -0.283291
    15  H    0.233306
    16  H    0.234271
    17  H    0.234547
    18  F   -0.236030
    19  F   -0.234798
    20  H    0.230162
    21  H    0.223023
    22  H    0.223000
    23  H    0.227724
    24  H    0.230555
    25  H    0.217772
    26  H    0.198180
    27  H    0.214159
    28  H    0.406155
    29  H    0.232672
    30  H    0.252838
    31  H    0.230469
    32  C   -0.671120
    33  H    0.221479
    34  H    0.233904
    35  H    0.226186
    36  H    0.335735
 Sum of Mulliken charges =   0.00000

 Dipole moment (field-independent basis, Debye):
    X=             -2.9827    Y=              0.3899    Z=             -0.6373  Tot=              3.0748
 Quadrupole moment (field-independent basis, Debye-Ang):
   XX=           -100.6548   YY=            -96.2345   ZZ=           -102.1448
   XY=              7.2491   XZ=             -7.6878   YZ=              2.5153

 Normal termination of Gaussian 09 at Mon Mar  4 11:29:02 2019.
