 Gaussian 09, Revision D.01,
 Gaussian 09:  ES64L-G09RevD.01 24-Apr-2013

 -------------------------------------------------------
 # mPW1PW91/6-311g(d) nmr=giao scrf=(solvent=chloroform)
 -------------------------------------------------------

 ------------
 AT3_1ginp018
 ------------
 Symbolic Z-matrix:
 Charge =  0 Multiplicity = 1

                         Standard orientation:
 ---------------------------------------------------------------------
 Center     Atomic      Atomic             Coordinates (Angstroms)
 Number     Number       Type             X           Y           Z
 ---------------------------------------------------------------------
      1          6           0        2.440679    2.751873   -0.067775
      2          6           0        2.413725    1.632945    0.965483
      3          6           0        1.980935    0.243171    0.435707
      4          6           0        2.920915   -0.324670   -0.672894
      5          6           0        2.457095   -1.697080   -1.202857
      6          8           0        2.287977   -2.639995   -0.152243
      7          7           0        0.601023    0.238525   -0.078226
      8          6           0       -0.414547    0.409069    0.960120
      9          6           0       -4.337379   -0.365191   -0.670456
     10          6           0       -3.630047   -1.382544   -0.031353
     11          6           0       -2.365551   -1.123279    0.496662
     12          6           0       -1.783993    0.142229    0.406755
     13          6           0       -2.505256    1.144841   -0.243369
     14          6           0       -3.770706    0.903991   -0.777116
     15          1           0       -5.322516   -0.561671   -1.085724
     16          1           0       -4.052067   -2.379173    0.058522
     17          1           0       -4.303533    1.708397   -1.275349
     18          9           0       -1.708802   -2.120842    1.106625
     19          9           0       -1.978415    2.372179   -0.365938
     20          1           0        1.453593    2.921577   -0.507050
     21          1           0        2.753194    3.687239    0.408476
     22          1           0        3.150203    2.541436   -0.872637
     23          1           0        3.406236    1.556519    1.424220
     24          1           0        1.751769    1.936823    1.785293
     25          1           0        2.926257    0.357281   -1.532914
     26          1           0        3.195168   -2.105530   -1.901695
     27          1           0        1.513919   -1.617995   -1.754617
     28          1           0        1.433038   -2.421010    0.264169
     29          1           0       -0.229197   -0.274545    1.797917
     30          1           0       -0.389682    1.423259    1.375331
     31          1           0        2.031857   -0.448251    1.287854
     32          6           0        4.367774   -0.446904   -0.172022
     33          1           0        4.424069   -1.040651    0.746374
     34          1           0        5.001644   -0.928514   -0.924702
     35          1           0        4.806258    0.535402    0.026716
     36          1           0        0.481899    0.966959   -0.782151
 ---------------------------------------------------------------------

 SCF Done:  E(RmPW1PW91) =  -836.460038322     A.U. after   12 cycles

      1  C    Isotropic =   182.3693   Anisotropy =    11.1440

      2  C    Isotropic =   167.7449   Anisotropy =    21.3257

      3  C    Isotropic =   126.2479   Anisotropy =    48.9282

      4  C    Isotropic =   148.1406   Anisotropy =    11.7245

      5  C    Isotropic =   119.4503   Anisotropy =    44.9584

      6  O    Isotropic =   319.4010   Anisotropy =    83.0571

      7  N    Isotropic =   210.4931   Anisotropy =    45.3020

      8  C    Isotropic =   147.6962   Anisotropy =    51.8353

      9  C    Isotropic =    54.7025   Anisotropy =   185.6021

     10  C    Isotropic =    70.4998   Anisotropy =   149.0162

     11  C    Isotropic =    19.2521   Anisotropy =    99.7956

     12  C    Isotropic =    65.4310   Anisotropy =   142.2385

     13  C    Isotropic =    19.8532   Anisotropy =    97.9319

     14  C    Isotropic =    71.1040   Anisotropy =   148.2590

     15  H    Isotropic =    24.5338   Anisotropy =     3.1744

     16  H    Isotropic =    25.1763   Anisotropy =     5.0315

     17  H    Isotropic =    25.2207   Anisotropy =     5.0345

     18  F    Isotropic =   304.2927   Anisotropy =   128.5054

     19  F    Isotropic =   306.0568   Anisotropy =   126.0466

     20  H    Isotropic =    31.2865   Anisotropy =     8.1428

     21  H    Isotropic =    31.1655   Anisotropy =    11.5495

     22  H    Isotropic =    31.4482   Anisotropy =     8.2781

     23  H    Isotropic =    30.5855   Anisotropy =     8.2267

     24  H    Isotropic =    29.9993   Anisotropy =     6.4900

     25  H    Isotropic =    30.7937   Anisotropy =     4.3958

     26  H    Isotropic =    28.8679   Anisotropy =     7.2596

     27  H    Isotropic =    27.7936   Anisotropy =     4.3490

     28  H    Isotropic =    31.1983   Anisotropy =    16.8763

     29  H    Isotropic =    28.8983   Anisotropy =     6.4613

     30  H    Isotropic =    28.0331   Anisotropy =     5.8766

     31  H    Isotropic =    29.2572   Anisotropy =     3.4291

     32  C    Isotropic =   170.6530   Anisotropy =    28.2003

     33  H    Isotropic =    30.8902   Anisotropy =     7.7813

     34  H    Isotropic =    31.2423   Anisotropy =    11.1536

     35  H    Isotropic =    31.1088   Anisotropy =     8.0197

     36  H    Isotropic =    31.5188   Anisotropy =     8.2847

 The electronic state is 1-A.
 Alpha  occ. eigenvalues --  -24.80587 -24.80426 -19.20188 -14.38146 -10.33803
 Alpha  occ. eigenvalues --  -10.33783 -10.26867 -10.26452 -10.26382 -10.26373
 Alpha  occ. eigenvalues --  -10.26010 -10.25238 -10.25205 -10.23370 -10.22634
 Alpha  occ. eigenvalues --  -10.22002 -10.21460  -1.27839  -1.27654  -1.04261
 Alpha  occ. eigenvalues --   -0.94502  -0.90481  -0.83060  -0.79971  -0.78662
 Alpha  occ. eigenvalues --   -0.78070  -0.71848  -0.69112  -0.68008  -0.66086
 Alpha  occ. eigenvalues --   -0.64125  -0.61961  -0.59144  -0.57602  -0.55819
 Alpha  occ. eigenvalues --   -0.52230  -0.52017  -0.51477  -0.51137  -0.49690
 Alpha  occ. eigenvalues --   -0.49550  -0.48764  -0.47676  -0.47005  -0.46032
 Alpha  occ. eigenvalues --   -0.44459  -0.43648  -0.42801  -0.41942  -0.41476
 Alpha  occ. eigenvalues --   -0.40741  -0.39316  -0.38601  -0.38189  -0.37738
 Alpha  occ. eigenvalues --   -0.37484  -0.36181  -0.35532  -0.35081  -0.32858
 Alpha  occ. eigenvalues --   -0.32431  -0.27809  -0.27525  -0.26811  -0.24125
 Alpha virt. eigenvalues --   -0.02058  -0.00945   0.04240   0.05938   0.06207
 Alpha virt. eigenvalues --    0.07351   0.07545   0.09533   0.10392   0.10878
 Alpha virt. eigenvalues --    0.11423   0.11774   0.12535   0.12865   0.13189

 Mulliken charges:
               1
     1  C   -0.671888
     2  C   -0.461511
     3  C   -0.160873
     4  C   -0.259319
     5  C   -0.221839
     6  O   -0.593800
     7  N   -0.536978
     8  C   -0.376484
     9  C   -0.193999
    10  C   -0.284805
    11  C    0.337681
    12  C   -0.151752
    13  C    0.340027
    14  C   -0.284267
    15  H    0.233532
    16  H    0.235046
    17  H    0.234454
    18  F   -0.236298
    19  F   -0.236737
    20  H    0.217112
    21  H    0.232413
    22  H    0.231716
    23  H    0.235978
    24  H    0.232082
    25  H    0.219897
    26  H    0.222280
    27  H    0.220688
    28  H    0.405818
    29  H    0.248469
    30  H    0.233811
    31  H    0.236432
    32  C   -0.666282
    33  H    0.230035
    34  H    0.225353
    35  H    0.231740
    36  H    0.332266
 Sum of Mulliken charges =   0.00000

 Dipole moment (field-independent basis, Debye):
    X=             -2.3653    Y=              2.5281    Z=             -0.4377  Tot=              3.4896
 Quadrupole moment (field-independent basis, Debye-Ang):
   XX=            -92.3993   YY=           -110.6556   ZZ=            -99.9225
   XY=              9.9603   XZ=              2.8820   YZ=              0.1587

 Normal termination of Gaussian 09 at Mon Mar  4 11:28:50 2019.
