 Gaussian 09, Revision D.01,
 Gaussian 09:  ES64L-G09RevD.01 24-Apr-2013

 -------------------------------------------------------
 # mPW1PW91/6-311g(d) nmr=giao scrf=(solvent=chloroform)
 -------------------------------------------------------

 ------------
 AT3_2ginp004
 ------------
 Symbolic Z-matrix:
 Charge =  0 Multiplicity = 1

                         Standard orientation:
 ---------------------------------------------------------------------
 Center     Atomic      Atomic             Coordinates (Angstroms)
 Number     Number       Type             X           Y           Z
 ---------------------------------------------------------------------
      1          6           0        3.244176    2.310764   -0.417413
      2          6           0        2.473453    1.518565    0.630634
      3          6           0        1.592050    0.393725    0.037940
      4          6           0        2.393654   -0.648222   -0.805419
      5          6           0        1.457672   -1.675784   -1.473180
      6          8           0        0.871546   -2.563241   -0.531303
      7          7           0        0.850063   -0.299457    1.113685
      8          6           0       -0.339047    0.419904    1.589684
      9          6           0       -3.675181    0.129960   -1.139160
     10          6           0       -3.329140   -0.954217   -0.334473
     11          6           0       -2.254902   -0.848432    0.548145
     12          6           0       -1.504320    0.324486    0.648239
     13          6           0       -1.870350    1.399155   -0.163389
     14          6           0       -2.942522    1.312395   -1.050878
     15          1           0       -4.510371    0.052781   -1.830470
     16          1           0       -3.886110   -1.885092   -0.386903
     17          1           0       -3.196307    2.168249   -1.669157
     18          9           0       -1.954441   -1.902055    1.320977
     19          9           0       -1.179563    2.547196   -0.102891
     20          1           0        3.737566    3.168781    0.050862
     21          1           0        4.022289    1.704992   -0.890213
     22          1           0        2.574054    2.689533   -1.195454
     23          1           0        3.179424    1.114907    1.365965
     24          1           0        1.842187    2.230913    1.174621
     25          1           0        2.877490   -0.108565   -1.629276
     26          1           0        2.015328   -2.282307   -2.194525
     27          1           0        0.653007   -1.172168   -2.019592
     28          1           0        0.559678   -1.995558    0.207548
     29          1           0       -0.645577   -0.031519    2.542343
     30          1           0       -0.113383    1.463264    1.835472
     31          1           0        0.882264    0.858462   -0.657136
     32          6           0        3.496098   -1.363880   -0.014440
     33          1           0        4.250896   -0.657285    0.343040
     34          1           0        3.100446   -1.904422    0.850990
     35          1           0        4.012486   -2.090340   -0.651669
     36          1           0        1.478011   -0.439288    1.907659
 ---------------------------------------------------------------------

 SCF Done:  E(RmPW1PW91) =  -836.466733566     A.U. after   12 cycles

      1  C    Isotropic =   175.7091   Anisotropy =    19.2334

      2  C    Isotropic =   161.7090   Anisotropy =    25.0977

      3  C    Isotropic =   124.9228   Anisotropy =    22.9623

      4  C    Isotropic =   151.3448   Anisotropy =     5.6005

      5  C    Isotropic =   116.0065   Anisotropy =    38.6585

      6  O    Isotropic =   307.2957   Anisotropy =    93.3786

      7  N    Isotropic =   196.5936   Anisotropy =    41.8743

      8  C    Isotropic =   150.6125   Anisotropy =    49.3149

      9  C    Isotropic =    53.6800   Anisotropy =   187.3907

     10  C    Isotropic =    69.9060   Anisotropy =   149.9939

     11  C    Isotropic =    18.4840   Anisotropy =   101.7517

     12  C    Isotropic =    67.8188   Anisotropy =   140.9110

     13  C    Isotropic =    19.2300   Anisotropy =   101.6112

     14  C    Isotropic =    71.5414   Anisotropy =   147.9738

     15  H    Isotropic =    24.4435   Anisotropy =     3.1119

     16  H    Isotropic =    25.0881   Anisotropy =     5.0515

     17  H    Isotropic =    25.1609   Anisotropy =     5.0289

     18  F    Isotropic =   300.3123   Anisotropy =   144.1405

     19  F    Isotropic =   301.3477   Anisotropy =   125.1324

     20  H    Isotropic =    31.0088   Anisotropy =    11.4649

     21  H    Isotropic =    31.2207   Anisotropy =     7.7262

     22  H    Isotropic =    31.4847   Anisotropy =     8.6309

     23  H    Isotropic =    30.9752   Anisotropy =     5.6075

     24  H    Isotropic =    29.9012   Anisotropy =     5.3793

     25  H    Isotropic =    30.7050   Anisotropy =     6.6176

     26  H    Isotropic =    28.6759   Anisotropy =     8.1910

     27  H    Isotropic =    28.7160   Anisotropy =     3.9028

     28  H    Isotropic =    28.2950   Anisotropy =    22.1388

     29  H    Isotropic =    28.4561   Anisotropy =     8.0045

     30  H    Isotropic =    28.1858   Anisotropy =     6.2026

     31  H    Isotropic =    29.4966   Anisotropy =     6.4035

     32  C    Isotropic =   178.1297   Anisotropy =    17.2600

     33  H    Isotropic =    31.3148   Anisotropy =     8.1584

     34  H    Isotropic =    30.9167   Anisotropy =     6.0001

     35  H    Isotropic =    31.3634   Anisotropy =    11.6924

     36  H    Isotropic =    31.2722   Anisotropy =    10.1560

 The electronic state is 1-A.
 Alpha  occ. eigenvalues --  -24.80577 -24.80379 -19.17742 -14.39501 -10.33922
 Alpha  occ. eigenvalues --  -10.33866 -10.27402 -10.26721 -10.26559 -10.26145
 Alpha  occ. eigenvalues --  -10.26080 -10.25273 -10.25218 -10.23480 -10.22972
 Alpha  occ. eigenvalues --  -10.21979 -10.21588  -1.27834  -1.27588  -1.02415
 Alpha  occ. eigenvalues --   -0.95038  -0.90594  -0.83155  -0.80320  -0.78692
 Alpha  occ. eigenvalues --   -0.78154  -0.72124  -0.69515  -0.67590  -0.66083
 Alpha  occ. eigenvalues --   -0.63719  -0.62624  -0.59080  -0.57756  -0.55765
 Alpha  occ. eigenvalues --   -0.52456  -0.52018  -0.51979  -0.50324  -0.49603
 Alpha  occ. eigenvalues --   -0.49454  -0.48700  -0.47843  -0.47002  -0.46088
 Alpha  occ. eigenvalues --   -0.44685  -0.43449  -0.42538  -0.41626  -0.41249
 Alpha  occ. eigenvalues --   -0.40812  -0.39631  -0.38462  -0.38143  -0.37719
 Alpha  occ. eigenvalues --   -0.37633  -0.36932  -0.36349  -0.34241  -0.32985
 Alpha  occ. eigenvalues --   -0.32587  -0.27753  -0.26852  -0.26467  -0.24810
 Alpha virt. eigenvalues --   -0.02299  -0.00990   0.05104   0.05733   0.06171
 Alpha virt. eigenvalues --    0.07368   0.07788   0.09888   0.10628   0.10991
 Alpha virt. eigenvalues --    0.11457   0.11619   0.12502   0.12985   0.13206

 Mulliken charges:
               1
     1  C   -0.668390
     2  C   -0.448607
     3  C   -0.129329
     4  C   -0.312701
     5  C   -0.189271
     6  O   -0.616346
     7  N   -0.599786
     8  C   -0.384465
     9  C   -0.189304
    10  C   -0.283828
    11  C    0.354706
    12  C   -0.152348
    13  C    0.339582
    14  C   -0.287841
    15  H    0.234576
    16  H    0.236694
    17  H    0.234873
    18  F   -0.233359
    19  F   -0.238339
    20  H    0.227583
    21  H    0.231097
    22  H    0.226817
    23  H    0.224365
    24  H    0.234093
    25  H    0.233494
    26  H    0.215996
    27  H    0.200819
    28  H    0.412863
    29  H    0.252082
    30  H    0.248119
    31  H    0.254573
    32  C   -0.660331
    33  H    0.230250
    34  H    0.226289
    35  H    0.229620
    36  H    0.345757
 Sum of Mulliken charges =   0.00000

 Dipole moment (field-independent basis, Debye):
    X=             -0.5192    Y=              3.6263    Z=              0.3361  Tot=              3.6787
 Quadrupole moment (field-independent basis, Debye-Ang):
   XX=            -89.6503   YY=           -115.4040   ZZ=            -95.3736
   XY=              3.0655   XZ=              6.7782   YZ=             -0.9342

 Normal termination of Gaussian 09 at Mon Mar  4 11:29:55 2019.
