 Gaussian 09, Revision D.01,
 Gaussian 09:  ES64L-G09RevD.01 24-Apr-2013

 -------------------------------------------------------
 # mPW1PW91/6-311g(d) nmr=giao scrf=(solvent=chloroform)
 -------------------------------------------------------

 ------------
 AT3_1ginp019
 ------------
 Symbolic Z-matrix:
 Charge =  0 Multiplicity = 1

                         Standard orientation:
 ---------------------------------------------------------------------
 Center     Atomic      Atomic             Coordinates (Angstroms)
 Number     Number       Type             X           Y           Z
 ---------------------------------------------------------------------
      1          6           0       -2.233182    2.708191   -0.766969
      2          6           0       -1.608544    1.904256    0.366477
      3          6           0       -1.222929    0.455042   -0.020068
      4          6           0       -2.411457   -0.352946   -0.629672
      5          6           0       -3.573877   -0.554671    0.352643
      6          8           0       -4.671303   -1.168765   -0.319414
      7          7           0       -0.662985   -0.255136    1.147252
      8          6           0        0.647957    0.222220    1.605725
      9          6           0        3.872502   -0.450720   -1.191355
     10          6           0        3.476581    0.847819   -0.875083
     11          6           0        2.435287    1.055758    0.029102
     12          6           0        1.768621   -0.011461    0.632786
     13          6           0        2.182919   -1.303715    0.303574
     14          6           0        3.221631   -1.530963   -0.598285
     15          1           0        4.682912   -0.619571   -1.895899
     16          1           0        3.970876    1.703000   -1.326673
     17          1           0        3.514119   -2.550475   -0.831707
     18          9           0        2.076146    2.316227    0.311278
     19          9           0        1.569974   -2.360822    0.856313
     20          1           0       -1.611511    2.668744   -1.666839
     21          1           0       -3.234826    2.345827   -1.014967
     22          1           0       -2.331929    3.757552   -0.470021
     23          1           0       -0.712164    2.450751    0.680887
     24          1           0       -2.287675    1.909414    1.227178
     25          1           0       -2.796583    0.199971   -1.495928
     26          1           0       -3.929522    0.399391    0.750810
     27          1           0       -3.284293   -1.198633    1.189369
     28          1           0       -5.369861   -1.297106    0.344995
     29          1           0        0.599061    1.271442    1.914595
     30          1           0        0.892821   -0.319259    2.528885
     31          1           0       -0.461396    0.515043   -0.808319
     32          6           0       -1.950281   -1.704795   -1.203747
     33          1           0       -2.740404   -2.155465   -1.814205
     34          1           0       -1.074078   -1.576167   -1.847974
     35          1           0       -1.696746   -2.421976   -0.416907
     36          1           0       -0.563931   -1.249148    0.938193
 ---------------------------------------------------------------------

 SCF Done:  E(RmPW1PW91) =  -836.456922939     A.U. after   12 cycles

      1  C    Isotropic =   176.7491   Anisotropy =    15.9167

      2  C    Isotropic =   162.6426   Anisotropy =    21.0966

      3  C    Isotropic =   125.9707   Anisotropy =    13.9400

      4  C    Isotropic =   150.7378   Anisotropy =    25.7975

      5  C    Isotropic =   122.9930   Anisotropy =    54.5904

      6  O    Isotropic =   308.8959   Anisotropy =   111.7761

      7  N    Isotropic =   201.3440   Anisotropy =    39.4733

      8  C    Isotropic =   149.6406   Anisotropy =    47.8290

      9  C    Isotropic =    55.0487   Anisotropy =   185.2465

     10  C    Isotropic =    71.5222   Anisotropy =   148.0421

     11  C    Isotropic =    19.6660   Anisotropy =   101.3118

     12  C    Isotropic =    65.7625   Anisotropy =   141.4189

     13  C    Isotropic =    19.3481   Anisotropy =    97.6283

     14  C    Isotropic =    70.3757   Anisotropy =   148.9711

     15  H    Isotropic =    24.5591   Anisotropy =     3.0786

     16  H    Isotropic =    25.2554   Anisotropy =     4.8145

     17  H    Isotropic =    25.1679   Anisotropy =     4.9790

     18  F    Isotropic =   301.4957   Anisotropy =   124.9856

     19  F    Isotropic =   304.8262   Anisotropy =   144.8260

     20  H    Isotropic =    31.4743   Anisotropy =     8.2938

     21  H    Isotropic =    31.0628   Anisotropy =     7.7726

     22  H    Isotropic =    31.0368   Anisotropy =    11.3233

     23  H    Isotropic =    30.1030   Anisotropy =     7.2067

     24  H    Isotropic =    30.9372   Anisotropy =     6.4668

     25  H    Isotropic =    30.0125   Anisotropy =     6.0767

     26  H    Isotropic =    28.1497   Anisotropy =     6.3071

     27  H    Isotropic =    28.5127   Anisotropy =     6.1699

     28  H    Isotropic =    31.5461   Anisotropy =    19.9052

     29  H    Isotropic =    28.2002   Anisotropy =     5.7736

     30  H    Isotropic =    28.2253   Anisotropy =     8.2750

     31  H    Isotropic =    29.8743   Anisotropy =     5.3932

     32  C    Isotropic =   170.8480   Anisotropy =    27.8250

     33  H    Isotropic =    30.4685   Anisotropy =     9.8274

     34  H    Isotropic =    31.8285   Anisotropy =     7.8621

     35  H    Isotropic =    31.4483   Anisotropy =     6.6499

     36  H    Isotropic =    30.6334   Anisotropy =    10.5046

 The electronic state is 1-A.
 Alpha  occ. eigenvalues --  -24.80761 -24.80382 -19.20175 -14.37856 -10.33810
 Alpha  occ. eigenvalues --  -10.33701 -10.26777 -10.26703 -10.26211 -10.26194
 Alpha  occ. eigenvalues --  -10.25964 -10.25252 -10.25190 -10.23777 -10.22377
 Alpha  occ. eigenvalues --  -10.21641 -10.21614  -1.28006  -1.27657  -1.04342
 Alpha  occ. eigenvalues --   -0.94082  -0.90357  -0.82979  -0.79875  -0.78651
 Alpha  occ. eigenvalues --   -0.78237  -0.71599  -0.69497  -0.67585  -0.66000
 Alpha  occ. eigenvalues --   -0.64007  -0.61768  -0.59163  -0.56742  -0.55340
 Alpha  occ. eigenvalues --   -0.53136  -0.52069  -0.52015  -0.51159  -0.49771
 Alpha  occ. eigenvalues --   -0.49380  -0.48938  -0.47343  -0.47140  -0.45948
 Alpha  occ. eigenvalues --   -0.44977  -0.43828  -0.42001  -0.41688  -0.41418
 Alpha  occ. eigenvalues --   -0.40424  -0.39312  -0.38606  -0.37933  -0.37790
 Alpha  occ. eigenvalues --   -0.37275  -0.36739  -0.35477  -0.33636  -0.32790
 Alpha  occ. eigenvalues --   -0.32319  -0.27936  -0.27547  -0.26827  -0.24025
 Alpha virt. eigenvalues --   -0.02056  -0.00971   0.05248   0.05591   0.06313
 Alpha virt. eigenvalues --    0.06871   0.07972   0.09094   0.10286   0.11090
 Alpha virt. eigenvalues --    0.11360   0.11744   0.12500   0.12818   0.13407

 Mulliken charges:
               1
     1  C   -0.672792
     2  C   -0.448449
     3  C   -0.088303
     4  C   -0.339929
     5  C   -0.154181
     6  O   -0.617421
     7  N   -0.548450
     8  C   -0.408812
     9  C   -0.195079
    10  C   -0.284763
    11  C    0.337617
    12  C   -0.180391
    13  C    0.342763
    14  C   -0.281812
    15  H    0.233340
    16  H    0.234189
    17  H    0.235123
    18  F   -0.235087
    19  F   -0.236192
    20  H    0.224619
    21  H    0.231299
    22  H    0.226925
    23  H    0.230791
    24  H    0.222967
    25  H    0.243852
    26  H    0.216014
    27  H    0.205538
    28  H    0.407863
    29  H    0.265721
    30  H    0.256725
    31  H    0.224119
    32  C   -0.667968
    33  H    0.241394
    34  H    0.228660
    35  H    0.217550
    36  H    0.332560
 Sum of Mulliken charges =   0.00000

 Dipole moment (field-independent basis, Debye):
    X=              1.6941    Y=              0.0309    Z=              0.0124  Tot=              1.6944
 Quadrupole moment (field-independent basis, Debye-Ang):
   XX=            -90.7137   YY=           -102.9020   ZZ=           -101.8549
   XY=             -2.8812   XZ=            -13.1357   YZ=             -0.9824

 Normal termination of Gaussian 09 at Mon Mar  4 11:29:29 2019.
