 Gaussian 09, Revision D.01,
 Gaussian 09:  ES64L-G09RevD.01 24-Apr-2013

 -------------------------------------------------------
 # mPW1PW91/6-311g(d) nmr=giao scrf=(solvent=chloroform)
 -------------------------------------------------------

 ------------
 AT3_2ginp006
 ------------
 Symbolic Z-matrix:
 Charge =  0 Multiplicity = 1

                         Standard orientation:
 ---------------------------------------------------------------------
 Center     Atomic      Atomic             Coordinates (Angstroms)
 Number     Number       Type             X           Y           Z
 ---------------------------------------------------------------------
      1          6           0       -3.624664   -2.223006   -1.109431
      2          6           0       -2.234880   -1.940053   -0.554046
      3          6           0       -1.869015   -0.437711   -0.522228
      4          6           0       -2.874857    0.436211    0.283964
      5          6           0       -2.506326    1.926613    0.182966
      6          8           0       -3.575554    2.723476    0.687943
      7          7           0       -0.510878   -0.243835    0.014817
      8          6           0        0.546695   -0.571472   -0.941752
      9          6           0        4.412141    0.468262    0.682405
     10          6           0        3.798742   -0.731105    1.040110
     11          6           0        2.552691   -1.057992    0.506419
     12          6           0        1.895570   -0.211706   -0.388697
     13          6           0        2.524337    0.986410   -0.730327
     14          6           0        3.770748    1.329727   -0.206467
     15          1           0        5.382524    0.731458    1.095336
     16          1           0        4.279797   -1.414344    1.733603
     17          1           0        4.230709    2.269863   -0.496148
     18          9           0        1.981394   -2.215720    0.870261
     19          9           0        1.935848    1.833839   -1.586980
     20          1           0       -3.765946   -3.301956   -1.231193
     21          1           0       -4.409021   -1.865200   -0.436534
     22          1           0       -3.760804   -1.751762   -2.087813
     23          1           0       -2.150005   -2.383964    0.444856
     24          1           0       -1.518704   -2.476720   -1.187507
     25          1           0       -3.869364    0.328011   -0.167816
     26          1           0       -2.341806    2.215416   -0.860400
     27          1           0       -1.605252    2.160083    0.759810
     28          1           0       -3.277835    3.648145    0.641823
     29          1           0        0.542661   -1.638816   -1.191102
     30          1           0        0.388800   -0.032158   -1.883823
     31          1           0       -1.896644   -0.065129   -1.555743
     32          6           0       -3.014570    0.023604    1.756619
     33          1           0       -3.342154   -1.015661    1.851390
     34          1           0       -2.070948    0.135862    2.300110
     35          1           0       -3.763543    0.640548    2.264754
     36          1           0       -0.386742   -0.814409    0.852391
 ---------------------------------------------------------------------

 SCF Done:  E(RmPW1PW91) =  -836.457396938     A.U. after   12 cycles

      1  C    Isotropic =   175.6547   Anisotropy =    19.0830

      2  C    Isotropic =   161.7364   Anisotropy =    23.9828

      3  C    Isotropic =   122.2176   Anisotropy =    31.3752

      4  C    Isotropic =   148.6521   Anisotropy =    20.3888

      5  C    Isotropic =   116.1328   Anisotropy =    50.4011

      6  O    Isotropic =   306.1168   Anisotropy =   115.8513

      7  N    Isotropic =   199.9446   Anisotropy =    54.7141

      8  C    Isotropic =   146.7532   Anisotropy =    52.8534

      9  C    Isotropic =    54.8511   Anisotropy =   185.5304

     10  C    Isotropic =    71.1322   Anisotropy =   147.9611

     11  C    Isotropic =    19.4507   Anisotropy =    98.2659

     12  C    Isotropic =    65.4577   Anisotropy =   142.1681

     13  C    Isotropic =    19.4829   Anisotropy =   100.3454

     14  C    Isotropic =    70.6597   Anisotropy =   148.7499

     15  H    Isotropic =    24.5525   Anisotropy =     3.2127

     16  H    Isotropic =    25.2417   Anisotropy =     4.9898

     17  H    Isotropic =    25.2159   Anisotropy =     4.8778

     18  F    Isotropic =   306.9531   Anisotropy =   126.8065

     19  F    Isotropic =   301.4239   Anisotropy =   127.7624

     20  H    Isotropic =    30.9805   Anisotropy =    11.3174

     21  H    Isotropic =    31.0481   Anisotropy =     7.2059

     22  H    Isotropic =    31.3968   Anisotropy =     9.2207

     23  H    Isotropic =    30.8331   Anisotropy =     4.9900

     24  H    Isotropic =    29.7818   Anisotropy =     6.0751

     25  H    Isotropic =    30.1201   Anisotropy =     5.5524

     26  H    Isotropic =    28.2870   Anisotropy =     4.9138

     27  H    Isotropic =    28.2305   Anisotropy =     7.6096

     28  H    Isotropic =    31.4797   Anisotropy =    19.5124

     29  H    Isotropic =    28.0346   Anisotropy =     5.5402

     30  H    Isotropic =    28.8745   Anisotropy =     6.9252

     31  H    Isotropic =    29.5255   Anisotropy =     2.3328

     32  C    Isotropic =   178.3180   Anisotropy =    18.9405

     33  H    Isotropic =    31.3546   Anisotropy =     8.0936

     34  H    Isotropic =    31.7672   Anisotropy =     7.2061

     35  H    Isotropic =    30.7485   Anisotropy =     9.8232

     36  H    Isotropic =    32.0926   Anisotropy =     8.6840

 The electronic state is 1-A.
 Alpha  occ. eigenvalues --  -24.80500 -24.80184 -19.19937 -14.37675 -10.33700
 Alpha  occ. eigenvalues --  -10.33673 -10.26627 -10.26387 -10.26279 -10.26239
 Alpha  occ. eigenvalues --  -10.25925 -10.25150 -10.25115 -10.23314 -10.22552
 Alpha  occ. eigenvalues --  -10.21703 -10.21256  -1.27751  -1.27448  -1.04090
 Alpha  occ. eigenvalues --   -0.94200  -0.90368  -0.83030  -0.79786  -0.78556
 Alpha  occ. eigenvalues --   -0.78062  -0.71516  -0.69328  -0.67069  -0.65952
 Alpha  occ. eigenvalues --   -0.63659  -0.62066  -0.59033  -0.57350  -0.55598
 Alpha  occ. eigenvalues --   -0.52883  -0.51903  -0.51328  -0.51168  -0.49515
 Alpha  occ. eigenvalues --   -0.48946  -0.48720  -0.47069  -0.46891  -0.46181
 Alpha  occ. eigenvalues --   -0.45206  -0.42504  -0.42180  -0.41578  -0.41309
 Alpha  occ. eigenvalues --   -0.40592  -0.39508  -0.38286  -0.38168  -0.37557
 Alpha  occ. eigenvalues --   -0.37404  -0.36268  -0.35810  -0.33881  -0.33063
 Alpha  occ. eigenvalues --   -0.32336  -0.27761  -0.27420  -0.26707  -0.23491
 Alpha virt. eigenvalues --   -0.01942  -0.00853   0.05142   0.05726   0.06422
 Alpha virt. eigenvalues --    0.06826   0.07538   0.08702   0.10438   0.11386
 Alpha virt. eigenvalues --    0.11671   0.11852   0.12202   0.13272   0.13604

 Mulliken charges:
               1
     1  C   -0.667290
     2  C   -0.453803
     3  C   -0.140558
     4  C   -0.284355
     5  C   -0.157626
     6  O   -0.617062
     7  N   -0.535666
     8  C   -0.361355
     9  C   -0.194121
    10  C   -0.283703
    11  C    0.341785
    12  C   -0.160281
    13  C    0.335400
    14  C   -0.288126
    15  H    0.232890
    16  H    0.234008
    17  H    0.233834
    18  F   -0.237794
    19  F   -0.235447
    20  H    0.225428
    21  H    0.231624
    22  H    0.224504
    23  H    0.221960
    24  H    0.233331
    25  H    0.234010
    26  H    0.200356
    27  H    0.209060
    28  H    0.406822
    29  H    0.227122
    30  H    0.246929
    31  H    0.233158
    32  C   -0.676056
    33  H    0.229857
    34  H    0.222496
    35  H    0.238833
    36  H    0.329834
 Sum of Mulliken charges =   0.00000

 Dipole moment (field-independent basis, Debye):
    X=              2.6525    Y=             -0.1869    Z=             -0.3292  Tot=              2.6794
 Quadrupole moment (field-independent basis, Debye-Ang):
   XX=            -99.9538   YY=            -96.2585   ZZ=           -101.9872
   XY=              5.3636   XZ=              7.6094   YZ=             -0.4474

 Normal termination of Gaussian 09 at Mon Mar  4 11:28:21 2019.
