 Gaussian 09, Revision D.01,
 Gaussian 09:  ES64L-G09RevD.01 24-Apr-2013

 -------------------------------------------------------
 # mPW1PW91/6-311g(d) nmr=giao scrf=(solvent=chloroform)
 -------------------------------------------------------

 ------------
 AT3_1ginp016
 ------------
 Symbolic Z-matrix:
 Charge =  0 Multiplicity = 1

                         Standard orientation:
 ---------------------------------------------------------------------
 Center     Atomic      Atomic             Coordinates (Angstroms)
 Number     Number       Type             X           Y           Z
 ---------------------------------------------------------------------
      1          6           0       -2.243676    2.932447    0.507270
      2          6           0       -2.617605    1.495860    0.863425
      3          6           0       -1.895222    0.433739   -0.002688
      4          6           0       -2.492135   -0.998518    0.180217
      5          6           0       -3.943779   -1.110317   -0.310752
      6          8           0       -4.056311   -0.695706   -1.666158
      7          7           0       -0.454277    0.427843    0.327955
      8          6           0        0.375910   -0.028537   -0.791118
      9          6           0        4.528261   -0.222429    0.384214
     10          6           0        3.760130   -1.384540    0.328923
     11          6           0        2.420861   -1.315200   -0.055036
     12          6           0        1.821836   -0.100826   -0.392764
     13          6           0        2.607591    1.051354   -0.327479
     14          6           0        3.947802    1.001017    0.054189
     15          1           0        5.571673   -0.270119    0.684860
     16          1           0        4.192839   -2.347398    0.583801
     17          1           0        4.527626    1.918261    0.093906
     18          9           0        1.711343   -2.452034   -0.106675
     19          9           0        2.071398    2.241632   -0.635540
     20          1           0       -2.411203    3.128120   -0.556579
     21          1           0       -2.863518    3.630697    1.079407
     22          1           0       -1.199259    3.156556    0.740552
     23          1           0       -2.411135    1.332002    1.927986
     24          1           0       -3.701184    1.407573    0.736444
     25          1           0       -1.907588   -1.680863   -0.450590
     26          1           0       -4.628487   -0.505020    0.289819
     27          1           0       -4.293560   -2.147008   -0.247652
     28          1           0       -3.546853   -1.326363   -2.204166
     29          1           0        0.054156   -1.012850   -1.147871
     30          1           0        0.275901    0.655241   -1.643955
     31          1           0       -2.019029    0.737749   -1.050556
     32          6           0       -2.399052   -1.519298    1.619305
     33          1           0       -3.018523   -0.930672    2.303313
     34          1           0       -2.745736   -2.557357    1.672627
     35          1           0       -1.368644   -1.502101    1.987491
     36          1           0       -0.147251    1.369409    0.568458
 ---------------------------------------------------------------------

 SCF Done:  E(RmPW1PW91) =  -836.457864944     A.U. after   12 cycles

      1  C    Isotropic =   175.1584   Anisotropy =    22.7676

      2  C    Isotropic =   165.5944   Anisotropy =    16.5209

      3  C    Isotropic =   125.0987   Anisotropy =    27.2721

      4  C    Isotropic =   146.2603   Anisotropy =    21.0090

      5  C    Isotropic =   119.6409   Anisotropy =    64.0651

      6  O    Isotropic =   296.6927   Anisotropy =    96.0986

      7  N    Isotropic =   206.0451   Anisotropy =    47.3303

      8  C    Isotropic =   147.4284   Anisotropy =    51.9120

      9  C    Isotropic =    54.8485   Anisotropy =   185.3325

     10  C    Isotropic =    70.6355   Anisotropy =   148.6847

     11  C    Isotropic =    19.8923   Anisotropy =    99.2170

     12  C    Isotropic =    66.0391   Anisotropy =   141.3975

     13  C    Isotropic =    19.0369   Anisotropy =    98.7781

     14  C    Isotropic =    71.0525   Anisotropy =   147.9670

     15  H    Isotropic =    24.5417   Anisotropy =     3.2023

     16  H    Isotropic =    25.1858   Anisotropy =     5.0131

     17  H    Isotropic =    25.1966   Anisotropy =     5.0119

     18  F    Isotropic =   300.6276   Anisotropy =   127.2436

     19  F    Isotropic =   305.9458   Anisotropy =   129.2083

     20  H    Isotropic =    31.2533   Anisotropy =     8.6470

     21  H    Isotropic =    30.8654   Anisotropy =    11.4888

     22  H    Isotropic =    31.1542   Anisotropy =     7.6732

     23  H    Isotropic =    30.9051   Anisotropy =     5.9559

     24  H    Isotropic =    30.4579   Anisotropy =     7.6751

     25  H    Isotropic =    30.1136   Anisotropy =     4.6267

     26  H    Isotropic =    28.5881   Anisotropy =     4.4236

     27  H    Isotropic =    28.1494   Anisotropy =     6.7825

     28  H    Isotropic =    32.0289   Anisotropy =    14.8574

     29  H    Isotropic =    28.4911   Anisotropy =     5.7710

     30  H    Isotropic =    28.5079   Anisotropy =     6.4699

     31  H    Isotropic =    28.9892   Anisotropy =     4.1064

     32  C    Isotropic =   177.3162   Anisotropy =    20.4998

     33  H    Isotropic =    31.7177   Anisotropy =     8.2114

     34  H    Isotropic =    31.6932   Anisotropy =    10.4696

     35  H    Isotropic =    30.7040   Anisotropy =     7.4785

     36  H    Isotropic =    31.2965   Anisotropy =    10.0330

 The electronic state is 1-A.
 Alpha  occ. eigenvalues --  -24.80541 -24.80222 -19.20602 -14.37657 -10.33723
 Alpha  occ. eigenvalues --  -10.33685 -10.27169 -10.26570 -10.26316 -10.25931
 Alpha  occ. eigenvalues --  -10.25858 -10.25161 -10.25122 -10.23447 -10.22670
 Alpha  occ. eigenvalues --  -10.21904 -10.21323  -1.27790  -1.27480  -1.04820
 Alpha  occ. eigenvalues --   -0.94019  -0.90349  -0.82886  -0.79993  -0.78569
 Alpha  occ. eigenvalues --   -0.78303  -0.71376  -0.69142  -0.67629  -0.65971
 Alpha  occ. eigenvalues --   -0.63793  -0.62630  -0.58992  -0.57156  -0.55871
 Alpha  occ. eigenvalues --   -0.52101  -0.51919  -0.51838  -0.50887  -0.49889
 Alpha  occ. eigenvalues --   -0.49491  -0.48482  -0.48179  -0.46934  -0.45401
 Alpha  occ. eigenvalues --   -0.44139  -0.43174  -0.42477  -0.41869  -0.41414
 Alpha  occ. eigenvalues --   -0.40852  -0.39548  -0.38969  -0.38097  -0.37891
 Alpha  occ. eigenvalues --   -0.37566  -0.36552  -0.35203  -0.33928  -0.33188
 Alpha  occ. eigenvalues --   -0.32011  -0.28335  -0.27420  -0.26719  -0.23856
 Alpha virt. eigenvalues --   -0.01960  -0.00866   0.04596   0.05592   0.06160
 Alpha virt. eigenvalues --    0.07070   0.07602   0.09563   0.10309   0.10837
 Alpha virt. eigenvalues --    0.11194   0.11952   0.12581   0.13045   0.13556

 Mulliken charges:
               1
     1  C   -0.661613
     2  C   -0.488767
     3  C   -0.070225
     4  C   -0.313017
     5  C   -0.197937
     6  O   -0.589459
     7  N   -0.545037
     8  C   -0.375619
     9  C   -0.194085
    10  C   -0.286762
    11  C    0.336275
    12  C   -0.151989
    13  C    0.335644
    14  C   -0.284027
    15  H    0.233044
    16  H    0.233928
    17  H    0.234333
    18  F   -0.236246
    19  F   -0.237234
    20  H    0.227585
    21  H    0.229505
    22  H    0.219338
    23  H    0.231822
    24  H    0.239023
    25  H    0.216984
    26  H    0.227380
    27  H    0.218875
    28  H    0.402505
    29  H    0.253119
    30  H    0.225673
    31  H    0.213735
    32  C   -0.658917
    33  H    0.223466
    34  H    0.221320
    35  H    0.236599
    36  H    0.330780
 Sum of Mulliken charges =   0.00000

 Dipole moment (field-independent basis, Debye):
    X=              2.0520    Y=             -0.6298    Z=              0.1377  Tot=              2.1509
 Quadrupole moment (field-independent basis, Debye-Ang):
   XX=            -94.1925   YY=            -99.2385   ZZ=           -103.6776
   XY=              3.0013   XZ=             -1.2907   YZ=              4.2401

 Normal termination of Gaussian 09 at Mon Mar  4 11:28:48 2019.
