 Gaussian 09, Revision D.01,
 Gaussian 09:  ES64L-G09RevD.01 24-Apr-2013

 -------------------------------------------------------
 # mPW1PW91/6-311g(d) nmr=giao scrf=(solvent=chloroform)
 -------------------------------------------------------

 ------------
 AT3_2ginp003
 ------------
 Symbolic Z-matrix:
 Charge =  0 Multiplicity = 1

                         Standard orientation:
 ---------------------------------------------------------------------
 Center     Atomic      Atomic             Coordinates (Angstroms)
 Number     Number       Type             X           Y           Z
 ---------------------------------------------------------------------
      1          6           0       -0.906928    2.504592    1.670639
      2          6           0       -1.955411    1.500058    1.198758
      3          6           0       -1.355087    0.277183    0.459205
      4          6           0       -2.397032   -0.870013    0.251247
      5          6           0       -3.614405   -0.465753   -0.597228
      6          8           0       -3.234429   -0.092384   -1.915415
      7          7           0       -0.792737    0.726983   -0.833765
      8          6           0        0.209969   -0.187292   -1.408160
      9          6           0        3.922939   -0.376768    0.794676
     10          6           0        3.095846   -1.495913    0.714468
     11          6           0        1.899037   -1.425231    0.002080
     12          6           0        1.499538   -0.252017   -0.639818
     13          6           0        2.343301    0.856568   -0.547137
     14          6           0        3.543328    0.804913    0.160720
     15          1           0        4.857363   -0.425379    1.348076
     16          1           0        3.373364   -2.425835    1.202235
     17          1           0        4.173022    1.688303    0.211961
     18          9           0        1.121154   -2.515794   -0.051270
     19          9           0        1.997104    2.008028   -1.141047
     20          1           0       -1.382296    3.278138    2.282789
     21          1           0       -0.141881    2.014907    2.281440
     22          1           0       -0.413573    3.008086    0.834834
     23          1           0       -2.501673    1.167873    2.087361
     24          1           0       -2.679514    2.020933    0.560830
     25          1           0       -1.887106   -1.684617   -0.278613
     26          1           0       -4.164430    0.366422   -0.147301
     27          1           0       -4.311233   -1.305733   -0.687985
     28          1           0       -2.403777    0.423071   -1.822903
     29          1           0       -0.212858   -1.185820   -1.559701
     30          1           0        0.442095    0.169771   -2.419819
     31          1           0       -0.552053   -0.109376    1.098935
     32          6           0       -2.870532   -1.461280    1.584056
     33          1           0       -3.526013   -0.776078    2.129767
     34          1           0       -3.436763   -2.383214    1.410636
     35          1           0       -2.019592   -1.712437    2.225587
     36          1           0       -0.340191    1.636789   -0.728650
 ---------------------------------------------------------------------

 SCF Done:  E(RmPW1PW91) =  -836.466752037     A.U. after   12 cycles

      1  C    Isotropic =   175.6064   Anisotropy =    21.6652

      2  C    Isotropic =   165.3143   Anisotropy =    16.8145

      3  C    Isotropic =   123.5714   Anisotropy =    14.8511

      4  C    Isotropic =   152.0364   Anisotropy =    20.9006

      5  C    Isotropic =   119.1692   Anisotropy =    66.7769

      6  O    Isotropic =   302.1146   Anisotropy =    69.4271

      7  N    Isotropic =   197.2655   Anisotropy =    33.3336

      8  C    Isotropic =   150.0405   Anisotropy =    46.6342

      9  C    Isotropic =    54.2490   Anisotropy =   186.5359

     10  C    Isotropic =    71.2002   Anisotropy =   148.5381

     11  C    Isotropic =    19.5103   Anisotropy =   101.5441

     12  C    Isotropic =    66.7884   Anisotropy =   140.3687

     13  C    Isotropic =    19.3919   Anisotropy =    97.6553

     14  C    Isotropic =    70.2921   Anisotropy =   149.3271

     15  H    Isotropic =    24.5218   Anisotropy =     3.0787

     16  H    Isotropic =    25.1960   Anisotropy =     4.8741

     17  H    Isotropic =    25.1576   Anisotropy =     4.9684

     18  F    Isotropic =   299.4358   Anisotropy =   127.0151

     19  F    Isotropic =   304.0741   Anisotropy =   144.4371

     20  H    Isotropic =    30.9983   Anisotropy =    11.7045

     21  H    Isotropic =    31.9310   Anisotropy =     7.4347

     22  H    Isotropic =    31.3464   Anisotropy =     6.7915

     23  H    Isotropic =    30.6361   Anisotropy =     7.7033

     24  H    Isotropic =    30.6384   Anisotropy =     7.2111

     25  H    Isotropic =    29.5898   Anisotropy =     4.5021

     26  H    Isotropic =    28.1680   Anisotropy =     4.0857

     27  H    Isotropic =    28.5967   Anisotropy =     6.9467

     28  H    Isotropic =    27.6225   Anisotropy =    23.4676

     29  H    Isotropic =    27.9332   Anisotropy =     4.9386

     30  H    Isotropic =    28.2884   Anisotropy =     8.1019

     31  H    Isotropic =    29.8014   Anisotropy =     4.8285

     32  C    Isotropic =   172.8091   Anisotropy =    27.1828

     33  H    Isotropic =    31.5690   Anisotropy =     7.9627

     34  H    Isotropic =    31.2358   Anisotropy =    10.8018

     35  H    Isotropic =    31.5582   Anisotropy =     8.5748

     36  H    Isotropic =    30.2782   Anisotropy =    11.0631

 The electronic state is 1-A.
 Alpha  occ. eigenvalues --  -24.81120 -24.80604 -19.17788 -14.39760 -10.34151
 Alpha  occ. eigenvalues --  -10.34037 -10.27407 -10.26892 -10.26647 -10.26279
 Alpha  occ. eigenvalues --  -10.26242 -10.25516 -10.25445 -10.23706 -10.23212
 Alpha  occ. eigenvalues --  -10.22314 -10.22079  -1.28360  -1.27884  -1.02512
 Alpha  occ. eigenvalues --   -0.95181  -0.90745  -0.83321  -0.80557  -0.78935
 Alpha  occ. eigenvalues --   -0.78680  -0.72176  -0.68709  -0.68163  -0.66336
 Alpha  occ. eigenvalues --   -0.64315  -0.63037  -0.59536  -0.57663  -0.56155
 Alpha  occ. eigenvalues --   -0.52625  -0.52291  -0.52011  -0.51083  -0.50492
 Alpha  occ. eigenvalues --   -0.49891  -0.49098  -0.47414  -0.46959  -0.46129
 Alpha  occ. eigenvalues --   -0.44483  -0.42934  -0.42579  -0.42196  -0.41799
 Alpha  occ. eigenvalues --   -0.40742  -0.40100  -0.39663  -0.38738  -0.38233
 Alpha  occ. eigenvalues --   -0.37954  -0.37036  -0.35399  -0.34582  -0.32898
 Alpha  occ. eigenvalues --   -0.32633  -0.27949  -0.27100  -0.26520  -0.25398
 Alpha virt. eigenvalues --   -0.02420  -0.01257   0.05122   0.05724   0.06228
 Alpha virt. eigenvalues --    0.07162   0.08132   0.09926   0.10191   0.10759
 Alpha virt. eigenvalues --    0.11430   0.11804   0.12083   0.12622   0.13181

 Mulliken charges:
               1
     1  C   -0.666084
     2  C   -0.475888
     3  C   -0.100886
     4  C   -0.315135
     5  C   -0.164317
     6  O   -0.624851
     7  N   -0.610166
     8  C   -0.396997
     9  C   -0.192289
    10  C   -0.286570
    11  C    0.340390
    12  C   -0.179599
    13  C    0.347704
    14  C   -0.280746
    15  H    0.235054
    16  H    0.235962
    17  H    0.236833
    18  F   -0.234896
    19  F   -0.236148
    20  H    0.233409
    21  H    0.227839
    22  H    0.221746
    23  H    0.243745
    24  H    0.235788
    25  H    0.232517
    26  H    0.201681
    27  H    0.214182
    28  H    0.410358
    29  H    0.271110
    30  H    0.264344
    31  H    0.238048
    32  C   -0.666154
    33  H    0.226928
    34  H    0.233550
    35  H    0.229955
    36  H    0.349584
 Sum of Mulliken charges =   0.00000

 Dipole moment (field-independent basis, Debye):
    X=              4.1346    Y=              0.5516    Z=              3.6887  Tot=              5.5683
 Quadrupole moment (field-independent basis, Debye-Ang):
   XX=           -100.1721   YY=           -100.8348   ZZ=           -107.3123
   XY=             -0.7951   XZ=             -6.9342   YZ=             -0.3885

 Normal termination of Gaussian 09 at Mon Mar  4 11:29:54 2019.
