 Gaussian 09, Revision D.01,
 Gaussian 09:  ES64L-G09RevD.01 24-Apr-2013

 -------------------------------------------------------
 # mPW1PW91/6-311g(d) nmr=giao scrf=(solvent=chloroform)
 -------------------------------------------------------

 ------------
 AT3_2ginp005
 ------------
 Symbolic Z-matrix:
 Charge =  0 Multiplicity = 1

                         Standard orientation:
 ---------------------------------------------------------------------
 Center     Atomic      Atomic             Coordinates (Angstroms)
 Number     Number       Type             X           Y           Z
 ---------------------------------------------------------------------
      1          6           0        2.030734    2.890224   -0.951065
      2          6           0        2.747001    1.779385   -0.195653
      3          6           0        2.171397    0.365110   -0.446029
      4          6           0        3.105030   -0.728456    0.165539
      5          6           0        2.621745   -2.148458   -0.185812
      6          8           0        1.435960   -2.499463    0.514667
      7          7           0        0.803384    0.220223    0.086253
      8          6           0       -0.223300    0.311642   -0.959669
      9          6           0       -4.169110   -0.179077    0.728286
     10          6           0       -3.586222   -1.212915   -0.003111
     11          6           0       -2.313390   -1.046738   -0.548528
     12          6           0       -1.597719    0.139241   -0.380863
     13          6           0       -2.200057    1.162139    0.354510
     14          6           0       -3.471748    1.014428    0.906674
     15          1           0       -5.159817   -0.304255    1.157636
     16          1           0       -4.112210   -2.151269   -0.152954
     17          1           0       -3.907405    1.830958    1.474667
     18          9           0       -1.784568   -2.054682   -1.256551
     19          9           0       -1.546869    2.318486    0.543264
     20          1           0        2.572794    3.833886   -0.830287
     21          1           0        1.974644    2.667994   -2.021121
     22          1           0        1.017661    3.045039   -0.569048
     23          1           0        3.801542    1.790447   -0.498586
     24          1           0        2.725089    2.023655    0.872996
     25          1           0        4.090669   -0.609678   -0.305432
     26          1           0        3.388666   -2.885192    0.075271
     27          1           0        2.428458   -2.240441   -1.259814
     28          1           0        0.868601   -1.698727    0.493591
     29          1           0       -0.181542    1.272966   -1.483171
     30          1           0       -0.046531   -0.461555   -1.717409
     31          1           0        2.170782    0.195704   -1.531975
     32          6           0        3.304454   -0.594632    1.681632
     33          1           0        2.355530   -0.614096    2.226664
     34          1           0        3.924135   -1.415110    2.060179
     35          1           0        3.820872    0.336655    1.932818
     36          1           0        0.626733    0.951568    0.778993
 ---------------------------------------------------------------------

 SCF Done:  E(RmPW1PW91) =  -836.464377412     A.U. after   12 cycles

      1  C    Isotropic =   173.8409   Anisotropy =    18.2246

      2  C    Isotropic =   154.0003   Anisotropy =    30.4300

      3  C    Isotropic =   119.8239   Anisotropy =    14.9075

      4  C    Isotropic =   144.7471   Anisotropy =     9.3094

      5  C    Isotropic =   115.3813   Anisotropy =    38.8780

      6  O    Isotropic =   316.4143   Anisotropy =    82.7991

      7  N    Isotropic =   203.7571   Anisotropy =    60.5117

      8  C    Isotropic =   143.8971   Anisotropy =    54.2034

      9  C    Isotropic =    54.0322   Anisotropy =   186.5633

     10  C    Isotropic =    70.1661   Anisotropy =   149.8642

     11  C    Isotropic =    20.2788   Anisotropy =    99.7857

     12  C    Isotropic =    67.3169   Anisotropy =   138.9926

     13  C    Isotropic =    19.1098   Anisotropy =    97.7034

     14  C    Isotropic =    70.9086   Anisotropy =   148.3675

     15  H    Isotropic =    24.5181   Anisotropy =     3.2082

     16  H    Isotropic =    25.1747   Anisotropy =     4.9918

     17  H    Isotropic =    25.1934   Anisotropy =     5.1996

     18  F    Isotropic =   299.7988   Anisotropy =   128.4319

     19  F    Isotropic =   306.3823   Anisotropy =   125.7707

     20  H    Isotropic =    30.8282   Anisotropy =    11.1818

     21  H    Isotropic =    31.0272   Anisotropy =     7.6628

     22  H    Isotropic =    30.5641   Anisotropy =     7.2656

     23  H    Isotropic =    30.5775   Anisotropy =     8.5003

     24  H    Isotropic =    30.5007   Anisotropy =     5.0917

     25  H    Isotropic =    30.8182   Anisotropy =     7.6703

     26  H    Isotropic =    28.4332   Anisotropy =     8.3894

     27  H    Isotropic =    27.8520   Anisotropy =     5.8252

     28  H    Isotropic =    28.3011   Anisotropy =    23.6650

     29  H    Isotropic =    28.0199   Anisotropy =     4.5231

     30  H    Isotropic =    28.3214   Anisotropy =     6.9722

     31  H    Isotropic =    29.2113   Anisotropy =     2.8102

     32  C    Isotropic =   176.3551   Anisotropy =    17.5600

     33  H    Isotropic =    30.8240   Anisotropy =     4.6709

     34  H    Isotropic =    31.3232   Anisotropy =    11.2826

     35  H    Isotropic =    31.2175   Anisotropy =     8.1672

     36  H    Isotropic =    31.2841   Anisotropy =     9.1855

 The electronic state is 1-A.
 Alpha  occ. eigenvalues --  -24.81043 -24.80423 -19.17972 -14.39587 -10.34078
 Alpha  occ. eigenvalues --  -10.33978 -10.27432 -10.26804 -10.26698 -10.26183
 Alpha  occ. eigenvalues --  -10.26167 -10.25419 -10.25329 -10.23367 -10.23147
 Alpha  occ. eigenvalues --  -10.22114 -10.21372  -1.28253  -1.27694  -1.02618
 Alpha  occ. eigenvalues --   -0.95313  -0.90735  -0.83309  -0.80125  -0.78834
 Alpha  occ. eigenvalues --   -0.78425  -0.72036  -0.69440  -0.67912  -0.66277
 Alpha  occ. eigenvalues --   -0.64182  -0.62122  -0.59375  -0.58018  -0.56213
 Alpha  occ. eigenvalues --   -0.52453  -0.52179  -0.51698  -0.50802  -0.49938
 Alpha  occ. eigenvalues --   -0.49694  -0.48096  -0.47540  -0.47202  -0.46402
 Alpha  occ. eigenvalues --   -0.44651  -0.43994  -0.42721  -0.41766  -0.41709
 Alpha  occ. eigenvalues --   -0.41331  -0.39517  -0.38561  -0.38132  -0.37793
 Alpha  occ. eigenvalues --   -0.37679  -0.36846  -0.36045  -0.34427  -0.33308
 Alpha  occ. eigenvalues --   -0.32282  -0.27850  -0.26964  -0.26562  -0.24932
 Alpha virt. eigenvalues --   -0.02308  -0.01127   0.04839   0.05837   0.06549
 Alpha virt. eigenvalues --    0.07277   0.07955   0.10118   0.10263   0.10730
 Alpha virt. eigenvalues --    0.10941   0.11333   0.12107   0.13131   0.13469

 Mulliken charges:
               1
     1  C   -0.667765
     2  C   -0.468344
     3  C   -0.106990
     4  C   -0.298795
     5  C   -0.186812
     6  O   -0.614653
     7  N   -0.600896
     8  C   -0.378918
     9  C   -0.191609
    10  C   -0.283727
    11  C    0.324545
    12  C   -0.156995
    13  C    0.345107
    14  C   -0.279707
    15  H    0.234906
    16  H    0.236825
    17  H    0.236239
    18  F   -0.232906
    19  F   -0.234370
    20  H    0.232440
    21  H    0.225308
    22  H    0.226112
    23  H    0.230078
    24  H    0.232556
    25  H    0.221065
    26  H    0.216739
    27  H    0.198802
    28  H    0.412766
    29  H    0.248570
    30  H    0.263589
    31  H    0.238444
    32  C   -0.655352
    33  H    0.225857
    34  H    0.227497
    35  H    0.229419
    36  H    0.350973
 Sum of Mulliken charges =   0.00000

 Dipole moment (field-independent basis, Debye):
    X=             -1.1157    Y=              3.7008    Z=             -0.7525  Tot=              3.9379
 Quadrupole moment (field-independent basis, Debye-Ang):
   XX=            -83.8377   YY=           -112.3722   ZZ=           -102.0517
   XY=              5.2273   XZ=             -7.3016   YZ=              3.4945

 Normal termination of Gaussian 09 at Mon Mar  4 11:28:59 2019.
