 Gaussian 09, Revision D.01,
 Gaussian 09:  ES64L-G09RevD.01 24-Apr-2013

 -------------------------------------------------------
 # mPW1PW91/6-311g(d) nmr=giao scrf=(solvent=chloroform)
 -------------------------------------------------------

 ------------
 AT3_1ginp017
 ------------
 Symbolic Z-matrix:
 Charge =  0 Multiplicity = 1

                         Standard orientation:
 ---------------------------------------------------------------------
 Center     Atomic      Atomic             Coordinates (Angstroms)
 Number     Number       Type             X           Y           Z
 ---------------------------------------------------------------------
      1          6           0        2.271830    2.743694   -0.159880
      2          6           0        2.221822    1.776762    1.016607
      3          6           0        1.870029    0.311547    0.660115
      4          6           0        2.889595   -0.368721   -0.304638
      5          6           0        2.552528   -1.862061   -0.496390
      6          8           0        3.428450   -2.459847   -1.450102
      7          7           0        0.527113    0.188643    0.068319
      8          6           0       -0.559526    0.429088    1.018108
      9          6           0       -4.375569   -0.472312   -0.795401
     10          6           0       -3.721091    0.722139   -1.091309
     11          6           0       -2.491273    1.003375   -0.497433
     12          6           0       -1.890428    0.115347    0.397164
     13          6           0       -2.560573   -1.076012    0.677696
     14          6           0       -3.791439   -1.374135    0.092940
     15          1           0       -5.333686   -0.700432   -1.255209
     16          1           0       -4.157731    1.436671   -1.782603
     17          1           0       -4.284263   -2.310977    0.335669
     18          9           0       -1.878965    2.157390   -0.802255
     19          9           0       -2.029139   -1.960597    1.533835
     20          1           0        3.010240    2.436768   -0.905560
     21          1           0        1.298335    2.834066   -0.650249
     22          1           0        2.554434    3.741144    0.193002
     23          1           0        3.186594    1.804796    1.536219
     24          1           0        1.502502    2.162219    1.749008
     25          1           0        2.843938    0.113099   -1.290643
     26          1           0        1.530229   -2.012693   -0.856211
     27          1           0        2.661135   -2.409381    0.445995
     28          1           0        3.244132   -2.036302   -2.305808
     29          1           0       -0.422914   -0.185699    1.916006
     30          1           0       -0.571704    1.472755    1.352975
     31          1           0        1.890020   -0.263099    1.596693
     32          6           0        4.338993   -0.235621    0.189469
     33          1           0        4.447239   -0.634937    1.203504
     34          1           0        5.034507   -0.775657   -0.461376
     35          1           0        4.667041    0.807886    0.194178
     36          1           0        0.426114    0.828364   -0.719520
 ---------------------------------------------------------------------

 SCF Done:  E(RmPW1PW91) =  -836.457934468     A.U. after   12 cycles

      1  C    Isotropic =   182.3068   Anisotropy =    11.2441

      2  C    Isotropic =   167.7827   Anisotropy =    21.2638

      3  C    Isotropic =   124.4018   Anisotropy =    40.0577

      4  C    Isotropic =   143.6250   Anisotropy =    23.6639

      5  C    Isotropic =   118.0489   Anisotropy =    52.1644

      6  O    Isotropic =   300.4680   Anisotropy =   116.5987

      7  N    Isotropic =   210.8273   Anisotropy =    43.3327

      8  C    Isotropic =   147.5458   Anisotropy =    51.1050

      9  C    Isotropic =    54.8948   Anisotropy =   185.4260

     10  C    Isotropic =    71.1352   Anisotropy =   148.0009

     11  C    Isotropic =    19.5323   Anisotropy =    97.4549

     12  C    Isotropic =    65.3805   Anisotropy =   141.8025

     13  C    Isotropic =    19.8070   Anisotropy =    99.9473

     14  C    Isotropic =    70.5372   Anisotropy =   148.9792

     15  H    Isotropic =    24.5387   Anisotropy =     3.1989

     16  H    Isotropic =    25.2183   Anisotropy =     5.1135

     17  H    Isotropic =    25.1875   Anisotropy =     4.8087

     18  F    Isotropic =   306.4193   Anisotropy =   125.8997

     19  F    Isotropic =   300.7302   Anisotropy =   125.8925

     20  H    Isotropic =    31.4504   Anisotropy =     7.7746

     21  H    Isotropic =    31.2226   Anisotropy =     8.3987

     22  H    Isotropic =    31.1681   Anisotropy =    11.4991

     23  H    Isotropic =    30.5475   Anisotropy =     8.0120

     24  H    Isotropic =    30.0417   Anisotropy =     6.7348

     25  H    Isotropic =    30.7891   Anisotropy =     2.4630

     26  H    Isotropic =    27.5795   Anisotropy =     8.6801

     27  H    Isotropic =    29.0329   Anisotropy =     4.4450

     28  H    Isotropic =    32.5051   Anisotropy =    15.5066

     29  H    Isotropic =    28.8804   Anisotropy =     7.7008

     30  H    Isotropic =    28.1235   Anisotropy =     5.1988

     31  H    Isotropic =    29.6892   Anisotropy =     3.4320

     32  C    Isotropic =   172.8253   Anisotropy =    24.9135

     33  H    Isotropic =    31.7587   Anisotropy =     9.3700

     34  H    Isotropic =    30.4275   Anisotropy =     9.1583

     35  H    Isotropic =    31.2443   Anisotropy =     7.5421

     36  H    Isotropic =    31.4674   Anisotropy =     8.4356

 The electronic state is 1-A.
 Alpha  occ. eigenvalues --  -24.80658 -24.80194 -19.20140 -14.37803 -10.33761
 Alpha  occ. eigenvalues --  -10.33701 -10.26692 -10.26452 -10.26388 -10.26341
 Alpha  occ. eigenvalues --  -10.25950 -10.25202 -10.25142 -10.23548 -10.22557
 Alpha  occ. eigenvalues --  -10.21994 -10.21396  -1.27888  -1.27469  -1.04262
 Alpha  occ. eigenvalues --   -0.94312  -0.90418  -0.83057  -0.79872  -0.78599
 Alpha  occ. eigenvalues --   -0.77988  -0.71713  -0.69064  -0.67936  -0.66007
 Alpha  occ. eigenvalues --   -0.64081  -0.61865  -0.59080  -0.58052  -0.55719
 Alpha  occ. eigenvalues --   -0.52184  -0.51951  -0.51416  -0.50789  -0.49606
 Alpha  occ. eigenvalues --   -0.49243  -0.49064  -0.47849  -0.46987  -0.45157
 Alpha  occ. eigenvalues --   -0.44433  -0.43549  -0.42865  -0.41926  -0.41462
 Alpha  occ. eigenvalues --   -0.41025  -0.39352  -0.38491  -0.37850  -0.37579
 Alpha  occ. eigenvalues --   -0.37456  -0.36417  -0.35619  -0.34770  -0.33106
 Alpha  occ. eigenvalues --   -0.32253  -0.28071  -0.27435  -0.26748  -0.23565
 Alpha virt. eigenvalues --   -0.01967  -0.00899   0.04815   0.05442   0.06237
 Alpha virt. eigenvalues --    0.06899   0.08261   0.09311   0.10348   0.10618
 Alpha virt. eigenvalues --    0.11324   0.11644   0.12415   0.13014   0.13470

 Mulliken charges:
               1
     1  C   -0.673230
     2  C   -0.466098
     3  C   -0.117262
     4  C   -0.314321
     5  C   -0.182703
     6  O   -0.594726
     7  N   -0.536056
     8  C   -0.366702
     9  C   -0.194351
    10  C   -0.283847
    11  C    0.341399
    12  C   -0.150579
    13  C    0.329770
    14  C   -0.287383
    15  H    0.233129
    16  H    0.234236
    17  H    0.234420
    18  F   -0.236737
    19  F   -0.234766
    20  H    0.230712
    21  H    0.217247
    22  H    0.232332
    23  H    0.235518
    24  H    0.232029
    25  H    0.211140
    26  H    0.225057
    27  H    0.215846
    28  H    0.399378
    29  H    0.248516
    30  H    0.229888
    31  H    0.234503
    32  C   -0.662728
    33  H    0.220554
    34  H    0.234865
    35  H    0.232341
    36  H    0.328607
 Sum of Mulliken charges =   0.00000

 Dipole moment (field-independent basis, Debye):
    X=             -2.3557    Y=              2.4028    Z=             -0.6738  Tot=              3.4317
 Quadrupole moment (field-independent basis, Debye-Ang):
   XX=            -97.3329   YY=           -110.3463   ZZ=            -96.7423
   XY=             11.1345   XZ=              5.1189   YZ=             -0.9205

 Normal termination of Gaussian 09 at Mon Mar  4 11:28:21 2019.
