 Gaussian 09, Revision D.01,
 Gaussian 09:  ES64L-G09RevD.01 24-Apr-2013

 -------------------------------------------------------
 # mPW1PW91/6-311g(d) nmr=giao scrf=(solvent=chloroform)
 -------------------------------------------------------

 ------------
 AT3_1ginp011
 ------------
 Symbolic Z-matrix:
 Charge =  0 Multiplicity = 1

                         Standard orientation:
 ---------------------------------------------------------------------
 Center     Atomic      Atomic             Coordinates (Angstroms)
 Number     Number       Type             X           Y           Z
 ---------------------------------------------------------------------
      1          6           0       -2.019220    3.032777    0.222186
      2          6           0       -2.545382    1.670710    0.664956
      3          6           0       -2.155200    0.509522   -0.281324
      4          6           0       -2.777665   -0.868838    0.126661
      5          6           0       -2.545710   -1.942470   -0.957695
      6          8           0       -1.170525   -2.263740   -1.106370
      7          7           0       -0.697915    0.402754   -0.522681
      8          6           0        0.123329    0.272498    0.692257
      9          6           0        4.293688   -0.262098   -0.314620
     10          6           0        3.657964    0.950324   -0.575232
     11          6           0        2.312883    1.111536   -0.245157
     12          6           0        1.573441    0.082466    0.342748
     13          6           0        2.231658   -1.120464    0.602010
     14          6           0        3.576498   -1.300133    0.278088
     15          1           0        5.341242   -0.397921   -0.570699
     16          1           0        4.198963    1.771894   -1.034997
     17          1           0        4.053361   -2.252160    0.492236
     18          9           0        1.724160    2.288968   -0.504535
     19          9           0        1.576824   -2.131790    1.189450
     20          1           0       -0.928560    3.088620    0.274808
     21          1           0       -2.328164    3.256275   -0.803898
     22          1           0       -2.419790    3.816804    0.873138
     23          1           0       -2.217334    1.463201    1.689948
     24          1           0       -3.636799    1.759674    0.700443
     25          1           0       -2.302825   -1.211309    1.054148
     26          1           0       -2.927923   -1.609260   -1.928792
     27          1           0       -3.063820   -2.871542   -0.698260
     28          1           0       -0.695981   -1.404607   -1.123484
     29          1           0        0.046541    1.162614    1.326580
     30          1           0       -0.217699   -0.573800    1.296757
     31          1           0       -2.589687    0.757531   -1.260248
     32          6           0       -4.286206   -0.776797    0.391033
     33          1           0       -4.812057   -0.331443   -0.460071
     34          1           0       -4.713459   -1.769751    0.569815
     35          1           0       -4.499071   -0.180206    1.283197
     36          1           0       -0.386651    1.247234   -1.010600
 ---------------------------------------------------------------------

 SCF Done:  E(RmPW1PW91) =  -836.464957643     A.U. after   12 cycles

      1  C    Isotropic =   176.4512   Anisotropy =    19.8466

      2  C    Isotropic =   163.2349   Anisotropy =    20.7513

      3  C    Isotropic =   119.5009   Anisotropy =    20.9719

      4  C    Isotropic =   149.6938   Anisotropy =    23.5299

      5  C    Isotropic =   113.6271   Anisotropy =    55.1137

      6  O    Isotropic =   295.7322   Anisotropy =    69.2449

      7  N    Isotropic =   211.5180   Anisotropy =    36.1708

      8  C    Isotropic =   154.6281   Anisotropy =    36.7548

      9  C    Isotropic =    54.2463   Anisotropy =   186.2502

     10  C    Isotropic =    70.8515   Anisotropy =   147.9321

     11  C    Isotropic =    18.8352   Anisotropy =    96.2945

     12  C    Isotropic =    67.0042   Anisotropy =   138.5720

     13  C    Isotropic =    20.4902   Anisotropy =    99.2629

     14  C    Isotropic =    70.0950   Anisotropy =   149.6263

     15  H    Isotropic =    24.5224   Anisotropy =     3.1747

     16  H    Isotropic =    25.2009   Anisotropy =     5.2635

     17  H    Isotropic =    25.1767   Anisotropy =     5.0638

     18  F    Isotropic =   305.0567   Anisotropy =   125.9903

     19  F    Isotropic =   298.7466   Anisotropy =   126.2650

     20  H    Isotropic =    30.8350   Anisotropy =     7.9103

     21  H    Isotropic =    31.3895   Anisotropy =     9.4598

     22  H    Isotropic =    30.8548   Anisotropy =    11.1043

     23  H    Isotropic =    30.3900   Anisotropy =     4.6264

     24  H    Isotropic =    30.5349   Anisotropy =     7.8734

     25  H    Isotropic =    30.0015   Anisotropy =     3.8040

     26  H    Isotropic =    28.2921   Anisotropy =     6.0768

     27  H    Isotropic =    28.4766   Anisotropy =     6.6022

     28  H    Isotropic =    27.8163   Anisotropy =    23.1454

     29  H    Isotropic =    28.5475   Anisotropy =     4.7449

     30  H    Isotropic =    28.3403   Anisotropy =     6.5655

     31  H    Isotropic =    29.4847   Anisotropy =     4.8085

     32  C    Isotropic =   172.0244   Anisotropy =    24.8471

     33  H    Isotropic =    31.7030   Anisotropy =     8.8079

     34  H    Isotropic =    31.3570   Anisotropy =    10.4750

     35  H    Isotropic =    31.0288   Anisotropy =     8.2413

     36  H    Isotropic =    29.8764   Anisotropy =    11.7714

 The electronic state is 1-A.
 Alpha  occ. eigenvalues --  -24.81108 -24.80274 -19.17746 -14.39807 -10.34036
 Alpha  occ. eigenvalues --  -10.33906 -10.27373 -10.27060 -10.26736 -10.26327
 Alpha  occ. eigenvalues --  -10.26092 -10.25376 -10.25268 -10.23894 -10.22966
 Alpha  occ. eigenvalues --  -10.22237 -10.22159  -1.28311  -1.27557  -1.02535
 Alpha  occ. eigenvalues --   -0.95155  -0.90670  -0.83315  -0.80502  -0.78777
 Alpha  occ. eigenvalues --   -0.78578  -0.72434  -0.68576  -0.68234  -0.66206
 Alpha  occ. eigenvalues --   -0.64424  -0.62203  -0.59405  -0.57778  -0.56165
 Alpha  occ. eigenvalues --   -0.53303  -0.52127  -0.51630  -0.51011  -0.50354
 Alpha  occ. eigenvalues --   -0.49638  -0.48671  -0.47270  -0.46934  -0.45950
 Alpha  occ. eigenvalues --   -0.44436  -0.43472  -0.42966  -0.42310  -0.41681
 Alpha  occ. eigenvalues --   -0.40482  -0.39854  -0.39383  -0.38598  -0.38032
 Alpha  occ. eigenvalues --   -0.37401  -0.36666  -0.35655  -0.35028  -0.33398
 Alpha  occ. eigenvalues --   -0.32618  -0.27733  -0.26903  -0.26439  -0.25289
 Alpha virt. eigenvalues --   -0.02189  -0.01074   0.04749   0.06029   0.06408
 Alpha virt. eigenvalues --    0.06855   0.08447   0.10019   0.10207   0.10839
 Alpha virt. eigenvalues --    0.11393   0.11719   0.12069   0.13177   0.13460

 Mulliken charges:
               1
     1  C   -0.677881
     2  C   -0.473080
     3  C   -0.087044
     4  C   -0.308720
     5  C   -0.160384
     6  O   -0.622186
     7  N   -0.613639
     8  C   -0.405768
     9  C   -0.192855
    10  C   -0.278562
    11  C    0.347886
    12  C   -0.133771
    13  C    0.317760
    14  C   -0.282682
    15  H    0.234391
    16  H    0.236170
    17  H    0.236467
    18  F   -0.235288
    19  F   -0.231334
    20  H    0.226820
    21  H    0.225705
    22  H    0.233231
    23  H    0.228545
    24  H    0.244389
    25  H    0.225767
    26  H    0.194568
    27  H    0.215128
    28  H    0.409325
    29  H    0.248819
    30  H    0.270981
    31  H    0.232980
    32  C   -0.678332
    33  H    0.226122
    34  H    0.233335
    35  H    0.238946
    36  H    0.354192
 Sum of Mulliken charges =   0.00000

 Dipole moment (field-independent basis, Debye):
    X=              0.5868    Y=              3.5225    Z=              0.9445  Tot=              3.6939
 Quadrupole moment (field-independent basis, Debye-Ang):
   XX=            -81.5853   YY=           -110.1501   ZZ=           -103.8394
   XY=             -3.6791   XZ=             -3.3506   YZ=             -4.4234

 Normal termination of Gaussian 09 at Mon Mar  4 11:28:55 2019.
