 Gaussian 09, Revision D.01,
 Gaussian 09:  ES64L-G09RevD.01 24-Apr-2013

 --------------------------------------------------------
 # m062x/def2tzvp int=ultrafine scrf=(solvent=chloroform)
 --------------------------------------------------------

 ------------
 IP1_2ginp017
 ------------
 Symbolic Z-matrix:
 Charge =  0 Multiplicity = 1

                         Standard orientation:
 ---------------------------------------------------------------------
 Center     Atomic      Atomic             Coordinates (Angstroms)
 Number     Number       Type             X           Y           Z
 ---------------------------------------------------------------------
      1          6           0        2.114273    0.689558    0.515274
      2          6           0        0.864145    1.579095    0.313660
      3          6           0       -0.266736    0.828235   -0.438913
      4          6           0        0.300327    0.308771   -1.765292
      5          6           0        1.594800   -0.467557   -1.639286
      6          1           0        2.990155    1.347577    0.557533
      7          1           0        0.472273    1.800083    1.312232
      8          1           0       -0.415505   -0.326981   -2.291205
      9          1           0        0.506326    1.152546   -2.434771
     10          8           0        2.423985   -0.184956   -0.620380
     11          8           0        1.935202   -1.298632   -2.458404
     12          6           0        2.122667   -0.168627    1.784032
     13          6           0        3.443402   -0.910818    2.007346
     14          6           0        1.264148    2.915517   -0.338874
     15          8           0       -0.659380   -0.258549    0.406178
     16         14           0       -1.553348   -1.678496    0.230499
     17          6           0       -3.062922   -1.479599   -0.888527
     18          6           0       -0.464555   -3.070708   -0.425054
     19          6           0       -2.115342   -2.073206    1.982320
     20          1           0       -1.051162   -3.992557   -0.515145
     21          1           0       -0.038083   -2.847867   -1.407529
     22          1           0        0.368275   -3.273443    0.256802
     23          1           0       -1.261088   -2.167353    2.660785
     24          1           0       -2.771643   -1.289744    2.375525
     25          1           0       -2.668588   -3.018718    2.008653
     26          1           0       -3.621499   -2.423243   -0.898892
     27          1           0       -3.742183   -0.700658   -0.527280
     28          1           0       -2.802067   -1.248850   -1.926718
     29          1           0        2.033784    3.403096    0.267200
     30          1           0        1.680946    2.779926   -1.342473
     31          1           0        0.420384    3.604554   -0.407025
     32          1           0        1.285348   -0.868920    1.749146
     33          1           0        1.932935    0.507837    2.627068
     34          1           0        3.410810   -1.485168    2.938289
     35          1           0        3.649912   -1.604398    1.188008
     36          1           0        4.285910   -0.212762    2.075722
     37          6           0       -1.499883    1.728102   -0.710020
     38          6           0       -2.120973    2.313944    0.528286
     39          6           0       -2.434813    3.600744    0.688491
     40          1           0       -2.238502    1.101817   -1.225706
     41          1           0       -1.233839    2.525839   -1.410334
     42          1           0       -2.328821    1.610344    1.332766
     43          1           0       -2.899812    3.964697    1.600072
     44          1           0       -2.247072    4.337669   -0.089535
 ---------------------------------------------------------------------

 SCF Done:  E(RM062X) =  -1064.33947940     A.U. after   14 cycles

 The electronic state is 1-A.
 Alpha  occ. eigenvalues --  -67.01669 -19.67082 -19.61958 -19.61366 -10.68071
 Alpha  occ. eigenvalues --  -10.62167 -10.60738 -10.55842 -10.55499 -10.54821
 Alpha  occ. eigenvalues --  -10.54645 -10.53622 -10.53440 -10.53413 -10.52202
 Alpha  occ. eigenvalues --  -10.51291 -10.50824 -10.50650  -5.55118  -3.86306
 Alpha  occ. eigenvalues --   -3.86165  -3.86141  -1.22716  -1.13955  -1.13192
 Alpha  occ. eigenvalues --   -0.93438  -0.90364  -0.88231  -0.84916  -0.80774
 Alpha  occ. eigenvalues --   -0.79823  -0.78498  -0.76942  -0.76638  -0.73732
 Alpha  occ. eigenvalues --   -0.70702  -0.67780  -0.64196  -0.61313  -0.59920
 Alpha  occ. eigenvalues --   -0.58354  -0.57143  -0.55406  -0.54714  -0.52771
 Alpha  occ. eigenvalues --   -0.52212  -0.50440  -0.49763  -0.49015  -0.48532
 Alpha  occ. eigenvalues --   -0.47940  -0.47722  -0.47539  -0.46796  -0.46336
 Alpha  occ. eigenvalues --   -0.45979  -0.45454  -0.45022  -0.44476  -0.44341
 Alpha  occ. eigenvalues --   -0.44001  -0.43229  -0.41902  -0.41482  -0.40820
 Alpha  occ. eigenvalues --   -0.40430  -0.39323  -0.38283  -0.36929  -0.35837
 Alpha  occ. eigenvalues --   -0.35304  -0.34473  -0.33803  -0.31839
 Alpha virt. eigenvalues --    0.03328   0.03803   0.04936   0.06745   0.07457
 Alpha virt. eigenvalues --    0.08249   0.09022   0.09702   0.10189   0.10238
 Alpha virt. eigenvalues --    0.10611   0.10659   0.11608   0.12362   0.13129

 Mulliken charges:
               1
     1  C    0.007243
     2  C   -0.153305
     3  C    0.218272
     4  C   -0.453830
     5  C    0.342313
     6  H    0.163827
     7  H    0.192012
     8  H    0.204682
     9  H    0.215230
    10  O   -0.239134
    11  O   -0.378647
    12  C   -0.255487
    13  C   -0.438383
    14  C   -0.487426
    15  O   -0.400892
    16  Si   0.448604
    17  C   -0.598950
    18  C   -0.552990
    19  C   -0.551686
    20  H    0.164557
    21  H    0.168558
    22  H    0.165358
    23  H    0.158811
    24  H    0.155672
    25  H    0.156555
    26  H    0.172177
    27  H    0.169887
    28  H    0.167980
    29  H    0.164678
    30  H    0.168899
    31  H    0.159174
    32  H    0.145373
    33  H    0.145530
    34  H    0.148409
    35  H    0.155760
    36  H    0.139980
    37  C   -0.385029
    38  C   -0.118214
    39  C   -0.334095
    40  H    0.189623
    41  H    0.194869
    42  H    0.172089
    43  H    0.147971
    44  H    0.143975
 Sum of Mulliken charges =   0.00000

 Dipole moment (field-independent basis, Debye):
    X=             -3.0888    Y=              3.5903    Z=              2.4544  Tot=              5.3343
 Quadrupole moment (field-independent basis, Debye-Ang):
   XX=           -125.9597   YY=           -115.9063   ZZ=           -125.0722
   XY=              9.9846   XZ=             10.2416   YZ=             -7.6301

 Normal termination of Gaussian 09 at Wed Jun 26 13:56:16 2019.
