 Gaussian 09, Revision D.01,
 Gaussian 09:  ES64L-G09RevD.01 24-Apr-2013

 --------------------------------------------------------
 # m062x/def2tzvp int=ultrafine scrf=(solvent=chloroform)
 --------------------------------------------------------

 ------------
 IP1_2ginp009
 ------------
 Symbolic Z-matrix:
 Charge =  0 Multiplicity = 1

                         Standard orientation:
 ---------------------------------------------------------------------
 Center     Atomic      Atomic             Coordinates (Angstroms)
 Number     Number       Type             X           Y           Z
 ---------------------------------------------------------------------
      1          6           0       -2.444667   -0.302925   -0.444286
      2          6           0       -1.005550   -0.791929   -0.684963
      3          6           0        0.043832    0.295685   -0.313330
      4          6           0       -0.195960    0.641169    1.164423
      5          6           0       -1.619736    1.046728    1.488545
      6          1           0       -2.736919    0.359511   -1.269308
      7          1           0       -0.810568   -1.626223    0.002847
      8          1           0        0.012487   -0.245067    1.776573
      9          1           0        0.459573    1.436539    1.520254
     10          8           0       -2.618541    0.512716    0.758852
     11          8           0       -1.898323    1.788988    2.407159
     12          6           0       -3.467266   -1.436129   -0.328119
     13          6           0       -4.915295   -0.951926   -0.208485
     14          6           0       -0.849445   -1.319212   -2.120073
     15          8           0        1.341938   -0.238066   -0.528578
     16         14           0        2.578202   -0.919928    0.381976
     17          6           0        3.323104    0.322325    1.590844
     18          6           0        2.004141   -2.460002    1.314268
     19          6           0        3.855109   -1.401520   -0.912188
     20          1           0        2.863600   -2.942206    1.794979
     21          1           0        1.277259   -2.237268    2.102503
     22          1           0        1.551935   -3.191651    0.636196
     23          1           0        4.735704   -1.854669   -0.443279
     24          1           0        3.443614   -2.126140   -1.622533
     25          1           0        4.190060   -0.527520   -1.480089
     26          1           0        4.245866   -0.082773    2.022559
     27          1           0        3.575002    1.257899    1.081172
     28          1           0        2.650369    0.560621    2.420771
     29          1           0        0.203008   -1.523015   -2.326381
     30          1           0       -1.407077   -2.247943   -2.263929
     31          1           0       -1.209400   -0.598665   -2.861791
     32          1           0       -3.199235   -2.050010    0.540950
     33          1           0       -3.368336   -2.077244   -1.210365
     34          1           0       -5.050249   -0.325314    0.676456
     35          1           0       -5.208744   -0.364743   -1.085873
     36          1           0       -5.599941   -1.801949   -0.132310
     37          6           0       -0.074379    1.552436   -1.221637
     38          6           0        0.858630    2.680669   -0.872337
     39          6           0        1.884944    3.076308   -1.626933
     40          1           0       -1.107595    1.921907   -1.180045
     41          1           0        0.113662    1.234650   -2.250980
     42          1           0        0.653142    3.217498    0.053501
     43          1           0        2.518053    3.909894   -1.337007
     44          1           0        2.124516    2.583683   -2.566371
 ---------------------------------------------------------------------

 SCF Done:  E(RM062X) =  -1064.33904880     A.U. after   14 cycles

 The electronic state is 1-A.
 Alpha  occ. eigenvalues --  -67.01636 -19.67384 -19.61859 -19.61790 -10.68436
 Alpha  occ. eigenvalues --  -10.62195 -10.61222 -10.55910 -10.55716 -10.54620
 Alpha  occ. eigenvalues --  -10.54501 -10.54250 -10.53378 -10.53275 -10.52570
 Alpha  occ. eigenvalues --  -10.51186 -10.50916 -10.50752  -5.55077  -3.86266
 Alpha  occ. eigenvalues --   -3.86121  -3.86108  -1.23086  -1.14360  -1.13421
 Alpha  occ. eigenvalues --   -0.93614  -0.90838  -0.88030  -0.85112  -0.80923
 Alpha  occ. eigenvalues --   -0.79411  -0.78886  -0.76969  -0.76735  -0.73261
 Alpha  occ. eigenvalues --   -0.70577  -0.68469  -0.64866  -0.62314  -0.60102
 Alpha  occ. eigenvalues --   -0.58548  -0.56059  -0.55403  -0.54451  -0.53505
 Alpha  occ. eigenvalues --   -0.52494  -0.51192  -0.50344  -0.49432  -0.48555
 Alpha  occ. eigenvalues --   -0.47826  -0.47530  -0.47311  -0.46940  -0.46610
 Alpha  occ. eigenvalues --   -0.45849  -0.45526  -0.44883  -0.44460  -0.44160
 Alpha  occ. eigenvalues --   -0.43660  -0.42973  -0.42041  -0.41692  -0.40818
 Alpha  occ. eigenvalues --   -0.40622  -0.39489  -0.38688  -0.37103  -0.36588
 Alpha  occ. eigenvalues --   -0.36035  -0.34147  -0.33427  -0.32052
 Alpha virt. eigenvalues --    0.03210   0.03526   0.05147   0.06906   0.07194
 Alpha virt. eigenvalues --    0.07445   0.09297   0.09751   0.09883   0.09979
 Alpha virt. eigenvalues --    0.10644   0.11278   0.11460   0.11839   0.12325

 Mulliken charges:
               1
     1  C   -0.034258
     2  C   -0.178498
     3  C    0.283694
     4  C   -0.488303
     5  C    0.358999
     6  H    0.185081
     7  H    0.187565
     8  H    0.202052
     9  H    0.210888
    10  O   -0.246000
    11  O   -0.370869
    12  C   -0.249091
    13  C   -0.442004
    14  C   -0.492151
    15  O   -0.379605
    16  Si   0.467215
    17  C   -0.565797
    18  C   -0.575004
    19  C   -0.571671
    20  H    0.168962
    21  H    0.161958
    22  H    0.164063
    23  H    0.153695
    24  H    0.155626
    25  H    0.158837
    26  H    0.165391
    27  H    0.167907
    28  H    0.164544
    29  H    0.172520
    30  H    0.165225
    31  H    0.166051
    32  H    0.151057
    33  H    0.143209
    34  H    0.158175
    35  H    0.141525
    36  H    0.149898
    37  C   -0.399009
    38  C   -0.121784
    39  C   -0.337091
    40  H    0.198963
    41  H    0.187520
    42  H    0.169167
    43  H    0.148321
    44  H    0.143028
 Sum of Mulliken charges =   0.00000

 Dipole moment (field-independent basis, Debye):
    X=              1.8781    Y=             -3.6955    Z=             -3.2474  Tot=              5.2659
 Quadrupole moment (field-independent basis, Debye-Ang):
   XX=           -121.1179   YY=           -122.4279   ZZ=           -127.0468
   XY=              8.8151   XZ=             12.6870   YZ=             -7.4017

 1\1\GINC-CPU-E-98\SP\RM062X\def2TZVP\C14H26O3Si1\KE291\26-Jun-2019\0\\
 # m062x/def2tzvp int=ultrafine scrf=(solvent=chloroform)\\IP1_2ginp009
 \\0,1\C,0,-2.444667,-0.302925,-0.444286\C,0,-1.00555,-0.791929,-0.6849
 63\C,0,0.043832,0.295685,-0.31333\C,0,-0.19596,0.641169,1.164423\C,0,-
 1.619736,1.046728,1.488545\H,0,-2.736919,0.359511,-1.269308\H,0,-0.810
 568,-1.626223,0.002847\H,0,0.012487,-0.245067,1.776573\H,0,0.459573,1.
 436539,1.520254\O,0,-2.618541,0.512716,0.758852\O,0,-1.898323,1.788988
 ,2.407159\C,0,-3.467266,-1.436129,-0.328119\C,0,-4.915295,-0.951926,-0

 Normal termination of Gaussian 09 at Wed Jun 26 13:53:12 2019.
