 Gaussian 09, Revision D.01,
 Gaussian 09:  ES64L-G09RevD.01 24-Apr-2013

 --------------------------------------------------------
 # m062x/def2tzvp int=ultrafine scrf=(solvent=chloroform)
 --------------------------------------------------------

 ------------
 IP1_3ginp002
 ------------
 Symbolic Z-matrix:
 Charge =  0 Multiplicity = 1

                         Standard orientation:
 ---------------------------------------------------------------------
 Center     Atomic      Atomic             Coordinates (Angstroms)
 Number     Number       Type             X           Y           Z
 ---------------------------------------------------------------------
      1          6           0        2.429946   -0.110986    0.063173
      2          6           0        1.116690    0.244628    0.774643
      3          6           0       -0.065283    0.043257   -0.213875
      4          6           0       -0.076339   -1.433985   -0.638452
      5          6           0        1.274510   -2.021260   -1.017313
      6          1           0        2.580006    0.583482   -0.770555
      7          1           0        1.161965    1.317432    0.993289
      8          1           0       -0.439429   -2.044513    0.195381
      9          1           0       -0.751189   -1.615061   -1.479418
     10          8           0        2.396527   -1.449862   -0.532148
     11          8           0        1.372424   -3.033965   -1.678812
     12          6           0        3.694109   -0.087052    0.922608
     13          6           0        4.024111    1.302445    1.477605
     14          6           0        0.922053   -0.511842    2.098503
     15          8           0       -1.258171    0.405111    0.478175
     16         14           0       -2.891128    0.012215    0.354839
     17          6           0       -3.531279    0.107767   -1.418965
     18          6           0       -3.230467   -1.708416    1.053909
     19          6           0       -3.740015    1.309355    1.419590
     20          1           0       -4.311772   -1.874113    1.127965
     21          1           0       -2.820244   -2.507099    0.427681
     22          1           0       -2.810033   -1.817920    2.059305
     23          1           0       -4.822259    1.140680    1.448722
     24          1           0       -3.369511    1.280158    2.449565
     25          1           0       -3.568102    2.318059    1.029907
     26          1           0       -4.610197   -0.087588   -1.426781
     27          1           0       -3.372712    1.099466   -1.855234
     28          1           0       -3.063981   -0.631476   -2.078117
     29          1           0       -0.080086   -0.329605    2.489168
     30          1           0        1.055062   -1.592324    1.983228
     31          1           0        1.641337   -0.173778    2.848879
     32          1           0        4.517885   -0.435401    0.289964
     33          1           0        3.599641   -0.813967    1.735874
     34          1           0        4.987067    1.286230    1.995948
     35          1           0        4.089874    2.046060    0.675812
     36          1           0        3.271301    1.649808    2.192061
     37          6           0        0.054260    0.947356   -1.474050
     38          6           0        0.184583    2.415296   -1.175764
     39          6           0        1.112839    3.221223   -1.694657
     40          1           0       -0.857553    0.774316   -2.059490
     41          1           0        0.885814    0.618915   -2.107938
     42          1           0       -0.555316    2.824814   -0.489703
     43          1           0        1.146064    4.280088   -1.455234
     44          1           0        1.867609    2.855327   -2.387469
 ---------------------------------------------------------------------

 SCF Done:  E(RM062X) =  -1064.34186647     A.U. after   14 cycles

 The electronic state is 1-A.
 Alpha  occ. eigenvalues --  -67.01763 -19.67338 -19.62041 -19.61753 -10.68406
 Alpha  occ. eigenvalues --  -10.62131 -10.60885 -10.55934 -10.55299 -10.54857
 Alpha  occ. eigenvalues --  -10.54761 -10.54056 -10.53643 -10.53121 -10.52932
 Alpha  occ. eigenvalues --  -10.51306 -10.51092 -10.50896  -5.55213  -3.86399
 Alpha  occ. eigenvalues --   -3.86256  -3.86243  -1.22973  -1.14306  -1.13431
 Alpha  occ. eigenvalues --   -0.93690  -0.90578  -0.88347  -0.84571  -0.81006
 Alpha  occ. eigenvalues --   -0.80303  -0.78684  -0.77061  -0.76885  -0.73724
 Alpha  occ. eigenvalues --   -0.69845  -0.68472  -0.64870  -0.60839  -0.59384
 Alpha  occ. eigenvalues --   -0.58923  -0.57582  -0.57061  -0.54043  -0.53467
 Alpha  occ. eigenvalues --   -0.52205  -0.50526  -0.50400  -0.49737  -0.49046
 Alpha  occ. eigenvalues --   -0.48220  -0.47771  -0.47458  -0.46488  -0.46123
 Alpha  occ. eigenvalues --   -0.45974  -0.45242  -0.44638  -0.44447  -0.43967
 Alpha  occ. eigenvalues --   -0.43729  -0.43115  -0.42686  -0.42496  -0.41283
 Alpha  occ. eigenvalues --   -0.40618  -0.39506  -0.38297  -0.36804  -0.36634
 Alpha  occ. eigenvalues --   -0.35850  -0.34546  -0.33847  -0.32002
 Alpha virt. eigenvalues --    0.03069   0.03599   0.04789   0.06580   0.07344
 Alpha virt. eigenvalues --    0.07632   0.08594   0.09413   0.09669   0.10287
 Alpha virt. eigenvalues --    0.10952   0.11131   0.11401   0.12496   0.12889

 Mulliken charges:
               1
     1  C   -0.041687
     2  C   -0.132098
     3  C    0.224551
     4  C   -0.504303
     5  C    0.342283
     6  H    0.180422
     7  H    0.202401
     8  H    0.229791
     9  H    0.198006
    10  O   -0.231617
    11  O   -0.369174
    12  C   -0.291914
    13  C   -0.455905
    14  C   -0.509922
    15  O   -0.408210
    16  Si   0.506822
    17  C   -0.594541
    18  C   -0.583850
    19  C   -0.565008
    20  H    0.166512
    21  H    0.166392
    22  H    0.166941
    23  H    0.154765
    24  H    0.158775
    25  H    0.156704
    26  H    0.172061
    27  H    0.169996
    28  H    0.166323
    29  H    0.169696
    30  H    0.172392
    31  H    0.168819
    32  H    0.158466
    33  H    0.168757
    34  H    0.158761
    35  H    0.152119
    36  H    0.149965
    37  C   -0.360484
    38  C   -0.122470
    39  C   -0.334838
    40  H    0.185748
    41  H    0.192585
    42  H    0.170723
    43  H    0.149129
    44  H    0.146115
 Sum of Mulliken charges =   0.00000

 Dipole moment (field-independent basis, Debye):
    X=             -1.8775    Y=              4.1391    Z=              2.2578  Tot=              5.0749
 Quadrupole moment (field-independent basis, Debye-Ang):
   XX=           -113.3409   YY=           -134.8677   ZZ=           -122.7842
   XY=             12.3110   XZ=              5.8061   YZ=             -9.5535

 Normal termination of Gaussian 09 at Wed Jun 26 13:55:02 2019.
