 Gaussian 09, Revision D.01,
 Gaussian 09:  ES64L-G09RevD.01 24-Apr-2013

 --------------------------------------------------------
 # m062x/def2tzvp int=ultrafine scrf=(solvent=chloroform)
 --------------------------------------------------------

 ------------
 IP1_1ginp017
 ------------
 Symbolic Z-matrix:
 Charge =  0 Multiplicity = 1

                         Standard orientation:
 ---------------------------------------------------------------------
 Center     Atomic      Atomic             Coordinates (Angstroms)
 Number     Number       Type             X           Y           Z
 ---------------------------------------------------------------------
      1          6           0        2.114338    0.689370    0.515291
      2          6           0        0.864269    1.578992    0.313681
      3          6           0       -0.266651    0.828220   -0.438921
      4          6           0        0.300396    0.308735   -1.765300
      5          6           0        1.594843   -0.467662   -1.639296
      6          1           0        2.990243    1.347360    0.557590
      7          1           0        0.472395    1.799970    1.312258
      8          1           0       -0.415470   -0.326996   -2.291195
      9          1           0        0.506449    1.152485   -2.434796
     10          8           0        2.424022   -0.185139   -0.620359
     11          8           0        1.935224   -1.298723   -2.458434
     12          6           0        2.122684   -0.168824    1.784044
     13          6           0        3.443424   -0.911000    2.007386
     14          6           0        1.264366    2.915398   -0.338816
     15          8           0       -0.659361   -0.258565    0.406156
     16         14           0       -1.553560   -1.678394    0.230514
     17          6           0       -3.063334   -1.479163   -0.888178
     18          6           0       -0.465056   -3.070616   -0.425488
     19          6           0       -2.115204   -2.073129    1.982435
     20          1           0        0.368029   -3.273394    0.256041
     21          1           0       -1.051689   -3.992457   -0.515467
     22          1           0       -0.038931   -2.847681   -1.408096
     23          1           0       -2.668928   -3.018361    2.008818
     24          1           0       -1.260801   -2.167794    2.660636
     25          1           0       -2.770991   -1.289381    2.375925
     26          1           0       -3.622570   -2.422421   -0.897868
     27          1           0       -3.741958   -0.699548   -0.527193
     28          1           0       -2.802545   -1.249165   -1.926552
     29          1           0        2.034083    3.402891    0.267224
     30          1           0        1.681085    2.779813   -1.342451
     31          1           0        0.420657    3.604510   -0.406887
     32          1           0        1.285368   -0.869118    1.749103
     33          1           0        1.932903    0.507620    2.627086
     34          1           0        3.410875   -1.485266    2.938380
     35          1           0        3.649910   -1.604647    1.188100
     36          1           0        4.285928   -0.212930    2.075662
     37          6           0       -1.499703    1.728196   -0.710070
     38          6           0       -2.120852    2.314032    0.528211
     39          6           0       -2.434573    3.600857    0.688458
     40          1           0       -2.238327    1.102015   -1.225870
     41          1           0       -1.233523    2.525950   -1.410315
     42          1           0       -2.328828    1.610425    1.332651
     43          1           0       -2.899593    3.964818    1.600024
     44          1           0       -2.246687    4.337806   -0.089511
 ---------------------------------------------------------------------

 SCF Done:  E(RM062X) =  -1064.33947971     A.U. after   14 cycles

 The electronic state is 1-A.
 Alpha  occ. eigenvalues --  -67.01669 -19.67082 -19.61958 -19.61366 -10.68071
 Alpha  occ. eigenvalues --  -10.62167 -10.60738 -10.55842 -10.55499 -10.54821
 Alpha  occ. eigenvalues --  -10.54645 -10.53623 -10.53440 -10.53413 -10.52202
 Alpha  occ. eigenvalues --  -10.51291 -10.50824 -10.50650  -5.55118  -3.86306
 Alpha  occ. eigenvalues --   -3.86165  -3.86141  -1.22716  -1.13955  -1.13191
 Alpha  occ. eigenvalues --   -0.93438  -0.90364  -0.88230  -0.84916  -0.80774
 Alpha  occ. eigenvalues --   -0.79823  -0.78498  -0.76942  -0.76638  -0.73732
 Alpha  occ. eigenvalues --   -0.70702  -0.67780  -0.64196  -0.61312  -0.59920
 Alpha  occ. eigenvalues --   -0.58353  -0.57143  -0.55406  -0.54714  -0.52771
 Alpha  occ. eigenvalues --   -0.52212  -0.50439  -0.49762  -0.49015  -0.48532
 Alpha  occ. eigenvalues --   -0.47940  -0.47722  -0.47539  -0.46796  -0.46336
 Alpha  occ. eigenvalues --   -0.45980  -0.45454  -0.45022  -0.44476  -0.44341
 Alpha  occ. eigenvalues --   -0.44001  -0.43228  -0.41902  -0.41482  -0.40820
 Alpha  occ. eigenvalues --   -0.40430  -0.39322  -0.38282  -0.36929  -0.35837
 Alpha  occ. eigenvalues --   -0.35304  -0.34473  -0.33803  -0.31839
 Alpha virt. eigenvalues --    0.03328   0.03803   0.04936   0.06745   0.07457
 Alpha virt. eigenvalues --    0.08249   0.09022   0.09702   0.10189   0.10238
 Alpha virt. eigenvalues --    0.10610   0.10659   0.11608   0.12360   0.13128

 Mulliken charges:
               1
     1  C    0.007231
     2  C   -0.153293
     3  C    0.218370
     4  C   -0.453917
     5  C    0.342355
     6  H    0.163823
     7  H    0.192010
     8  H    0.204695
     9  H    0.215227
    10  O   -0.239137
    11  O   -0.378646
    12  C   -0.255483
    13  C   -0.438377
    14  C   -0.487429
    15  O   -0.400893
    16  Si   0.448582
    17  C   -0.598952
    18  C   -0.553003
    19  C   -0.551667
    20  H    0.165360
    21  H    0.164565
    22  H    0.168553
    23  H    0.156553
    24  H    0.158811
    25  H    0.155674
    26  H    0.172180
    27  H    0.169873
    28  H    0.168004
    29  H    0.164676
    30  H    0.168901
    31  H    0.159173
    32  H    0.145375
    33  H    0.145528
    34  H    0.148408
    35  H    0.155759
    36  H    0.139978
    37  C   -0.385140
    38  C   -0.118187
    39  C   -0.334095
    40  H    0.189645
    41  H    0.194873
    42  H    0.172092
    43  H    0.147971
    44  H    0.143975
 Sum of Mulliken charges =   0.00000

 Dipole moment (field-independent basis, Debye):
    X=             -3.0889    Y=              3.5904    Z=              2.4545  Tot=              5.3345
 Quadrupole moment (field-independent basis, Debye-Ang):
   XX=           -125.9589   YY=           -115.9070   ZZ=           -125.0725
   XY=              9.9857   XZ=             10.2409   YZ=             -7.6306

 1\1\GINC-CPU-E-68\SP\RM062X\def2TZVP\C14H26O3Si1\KE291\26-Jun-2019\0\\
 # m062x/def2tzvp int=ultrafine scrf=(solvent=chloroform)\\IP1_1ginp017
 \\0,1\C,0,2.114338,0.68937,0.515291\C,0,0.864269,1.578992,0.313681\C,0
 ,-0.266651,0.82822,-0.438921\C,0,0.300396,0.308735,-1.7653\C,0,1.59484
 3,-0.467662,-1.639296\H,0,2.990243,1.34736,0.55759\H,0,0.472395,1.7999
 7,1.312258\H,0,-0.41547,-0.326996,-2.291195\H,0,0.506449,1.152485,-2.4
 34796\O,0,2.424022,-0.185139,-0.620359\O,0,1.935224,-1.298723,-2.45843
 4\C,0,2.122684,-0.168824,1.784044\C,0,3.443424,-0.911,2.007386\C,0,1.2

 Normal termination of Gaussian 09 at Wed Jun 26 13:55:12 2019.
