 Gaussian 09, Revision D.01,
 Gaussian 09:  ES64L-G09RevD.01 24-Apr-2013

 --------------------------------------------------------
 # m062x/def2tzvp int=ultrafine scrf=(solvent=chloroform)
 --------------------------------------------------------

 ------------
 IP1_2ginp008
 ------------
 Symbolic Z-matrix:
 Charge =  0 Multiplicity = 1

                         Standard orientation:
 ---------------------------------------------------------------------
 Center     Atomic      Atomic             Coordinates (Angstroms)
 Number     Number       Type             X           Y           Z
 ---------------------------------------------------------------------
      1          6           0       -2.219480   -0.171568   -0.307807
      2          6           0       -0.815599   -0.230796   -0.936042
      3          6           0        0.134572    0.776862   -0.212786
      4          6           0       -0.295957    0.921660    1.279640
      5          6           0       -1.129364   -0.199689    1.854226
      6          1           0       -2.581330    0.866035   -0.265464
      7          1           0       -0.445035   -1.232936   -0.684516
      8          1           0        0.579197    1.065375    1.912497
      9          1           0       -0.906955    1.827472    1.384270
     10          8           0       -2.121607   -0.666866    1.062235
     11          8           0       -0.997782   -0.653882    2.971548
     12          6           0       -3.279675   -1.036358   -0.985342
     13          6           0       -4.638532   -0.997676   -0.279010
     14          6           0       -0.809721   -0.104817   -2.465080
     15          8           0        1.491347    0.348737   -0.296821
     16         14           0        2.359151   -1.079445   -0.084562
     17          6           0        2.413207   -2.052478   -1.700761
     18          6           0        4.092535   -0.494165    0.354268
     19          6           0        1.667726   -2.168871    1.291043
     20          1           0        4.777010   -1.343658    0.457337
     21          1           0        4.493951    0.165859   -0.421904
     22          1           0        4.098664    0.057848    1.299938
     23          1           0        1.508352   -1.614218    2.220225
     24          1           0        0.717563   -2.641041    1.020929
     25          1           0        2.381880   -2.974290    1.500321
     26          1           0        3.064371   -2.928107   -1.594292
     27          1           0        1.425017   -2.413033   -2.004332
     28          1           0        2.812501   -1.440433   -2.516689
     29          1           0        0.217112   -0.053662   -2.836074
     30          1           0       -1.283085   -0.974054   -2.927787
     31          1           0       -1.339559    0.787920   -2.811458
     32          1           0       -2.909708   -2.067957   -1.038419
     33          1           0       -3.394668   -0.685722   -2.015945
     34          1           0       -4.560420   -1.363411    0.747510
     35          1           0       -5.036440    0.022789   -0.244397
     36          1           0       -5.364432   -1.620777   -0.809678
     37          6           0        0.107514    2.179647   -0.877632
     38          6           0        0.926704    3.214284   -0.156290
     39          6           0        0.459295    4.384177    0.282494
     40          1           0       -0.930124    2.524180   -0.961689
     41          1           0        0.498451    2.064739   -1.894530
     42          1           0        1.975433    2.964084   -0.006459
     43          1           0        1.100696    5.102668    0.784566
     44          1           0       -0.581573    4.671377    0.148692
 ---------------------------------------------------------------------

 SCF Done:  E(RM062X) =  -1064.34048580     A.U. after   14 cycles

 The electronic state is 1-A.
 Alpha  occ. eigenvalues --  -67.01533 -19.67268 -19.61793 -19.61707 -10.67950
 Alpha  occ. eigenvalues --  -10.62425 -10.61192 -10.55984 -10.55547 -10.54582
 Alpha  occ. eigenvalues --  -10.54461 -10.54376 -10.53679 -10.53432 -10.52689
 Alpha  occ. eigenvalues --  -10.50918 -10.50857 -10.50677  -5.54984  -3.86173
 Alpha  occ. eigenvalues --   -3.86025  -3.86012  -1.23040  -1.14353  -1.13190
 Alpha  occ. eigenvalues --   -0.93557  -0.90736  -0.87812  -0.85072  -0.80859
 Alpha  occ. eigenvalues --   -0.79394  -0.79014  -0.76777  -0.76676  -0.73512
 Alpha  occ. eigenvalues --   -0.69630  -0.68569  -0.64938  -0.63130  -0.60336
 Alpha  occ. eigenvalues --   -0.57509  -0.57012  -0.55167  -0.54784  -0.52805
 Alpha  occ. eigenvalues --   -0.51415  -0.50408  -0.50246  -0.49402  -0.48873
 Alpha  occ. eigenvalues --   -0.48467  -0.47591  -0.47175  -0.47009  -0.46308
 Alpha  occ. eigenvalues --   -0.45807  -0.45450  -0.44959  -0.44367  -0.44190
 Alpha  occ. eigenvalues --   -0.43826  -0.43058  -0.42052  -0.41548  -0.41189
 Alpha  occ. eigenvalues --   -0.40726  -0.40518  -0.38702  -0.37130  -0.36453
 Alpha  occ. eigenvalues --   -0.35500  -0.34152  -0.33303  -0.31981
 Alpha virt. eigenvalues --    0.03609   0.03744   0.04874   0.06223   0.06807
 Alpha virt. eigenvalues --    0.07627   0.08990   0.09616   0.10249   0.10522
 Alpha virt. eigenvalues --    0.10771   0.11350   0.11699   0.11881   0.13017

 Mulliken charges:
               1
     1  C   -0.016759
     2  C   -0.172643
     3  C    0.229201
     4  C   -0.418173
     5  C    0.324485
     6  H    0.175994
     7  H    0.191157
     8  H    0.205788
     9  H    0.215497
    10  O   -0.237693
    11  O   -0.365444
    12  C   -0.292622
    13  C   -0.442482
    14  C   -0.536957
    15  O   -0.385451
    16  Si   0.473835
    17  C   -0.574567
    18  C   -0.578678
    19  C   -0.585815
    20  H    0.154883
    21  H    0.157532
    22  H    0.157905
    23  H    0.175263
    24  H    0.170833
    25  H    0.171673
    26  H    0.165622
    27  H    0.161224
    28  H    0.165008
    29  H    0.185201
    30  H    0.182248
    31  H    0.185055
    32  H    0.160701
    33  H    0.160174
    34  H    0.159808
    35  H    0.140262
    36  H    0.150687
    37  C   -0.375777
    38  C   -0.127454
    39  C   -0.322629
    40  H    0.182312
    41  H    0.180877
    42  H    0.161961
    43  H    0.147290
    44  H    0.140667
 Sum of Mulliken charges =   0.00000

 Dipole moment (field-independent basis, Debye):
    X=             -0.2844    Y=              1.3307    Z=             -5.1494  Tot=              5.3262
 Quadrupole moment (field-independent basis, Debye-Ang):
   XX=           -115.2316   YY=           -117.4000   ZZ=           -133.6705
   XY=             -6.2251   XZ=              9.6614   YZ=              7.2842

 1\1\GINC-CPU-E-98\SP\RM062X\def2TZVP\C14H26O3Si1\KE291\26-Jun-2019\0\\
 # m062x/def2tzvp int=ultrafine scrf=(solvent=chloroform)\\IP1_2ginp008
 \\0,1\C,0,-2.21948,-0.171568,-0.307807\C,0,-0.815599,-0.230796,-0.9360
 42\C,0,0.134572,0.776862,-0.212786\C,0,-0.295957,0.92166,1.27964\C,0,-
 1.129364,-0.199689,1.854226\H,0,-2.58133,0.866035,-0.265464\H,0,-0.445
 035,-1.232936,-0.684516\H,0,0.579197,1.065375,1.912497\H,0,-0.906955,1
 .827472,1.38427\O,0,-2.121607,-0.666866,1.062235\O,0,-0.997782,-0.6538
 82,2.971548\C,0,-3.279675,-1.036358,-0.985342\C,0,-4.638532,-0.997676,

 Normal termination of Gaussian 09 at Wed Jun 26 13:54:17 2019.
