 Gaussian 09, Revision D.01,
 Gaussian 09:  ES64L-G09RevD.01 24-Apr-2013

 --------------------------------------------------------
 # m062x/def2tzvp int=ultrafine scrf=(solvent=chloroform)
 --------------------------------------------------------

 ------------
 IP1_2ginp001
 ------------
 Symbolic Z-matrix:
 Charge =  0 Multiplicity = 1

                         Standard orientation:
 ---------------------------------------------------------------------
 Center     Atomic      Atomic             Coordinates (Angstroms)
 Number     Number       Type             X           Y           Z
 ---------------------------------------------------------------------
      1          6           0       -2.314229   -0.552391   -0.368994
      2          6           0       -0.841134   -0.935202   -0.590736
      3          6           0        0.097984    0.289727   -0.398498
      4          6           0       -0.130569    0.811133    1.027083
      5          6           0       -1.581442    1.071482    1.381133
      6          1           0       -2.675157   -0.000006   -1.246288
      7          1           0       -0.558583   -1.648957    0.194945
      8          1           0        0.223403    0.065953    1.749799
      9          1           0        0.420057    1.734657    1.213559
     10          8           0       -2.536968    0.351195    0.759415
     11          8           0       -1.913943    1.860496    2.240751
     12          6           0       -3.234096   -1.751561   -0.126072
     13          6           0       -4.714114   -1.378085    0.000678
     14          6           0       -0.660535   -1.630928   -1.948965
     15          8           0        1.449513   -0.115148   -0.597035
     16         14           0        2.676705   -0.786802    0.338620
     17          6           0        3.379208    0.479940    1.547302
     18          6           0        2.110237   -2.325682    1.276453
     19          6           0        3.984036   -1.258648   -0.928748
     20          1           0        2.966027   -2.771445    1.797201
     21          1           0        1.348376   -2.111923    2.033411
     22          1           0        1.707039   -3.083946    0.596892
     23          1           0        4.864372   -1.690436   -0.439742
     24          1           0        3.598044   -1.998116   -1.638082
     25          1           0        4.314198   -0.385574   -1.501145
     26          1           0        3.676400    1.396296    1.026383
     27          1           0        2.667159    0.756275    2.331138
     28          1           0        4.270560    0.074682    2.040513
     29          1           0        0.402736   -1.740968   -2.170936
     30          1           0       -1.108702   -2.627453   -1.946660
     31          1           0       -1.120896   -1.062709   -2.763835
     32          1           0       -2.893830   -2.267278    0.780703
     33          1           0       -3.105419   -2.453711   -0.956419
     34          1           0       -4.879111   -0.696461    0.838550
     35          1           0       -5.076323   -0.887497   -0.909776
     36          1           0       -5.323750   -2.272090    0.162544
     37          6           0       -0.171866    1.407477   -1.442436
     38          6           0        0.739194    2.597793   -1.313171
     39          6           0        0.330582    3.849825   -1.100507
     40          1           0       -1.214187    1.737943   -1.372266
     41          1           0       -0.038336    0.963145   -2.436014
     42          1           0        1.802726    2.390631   -1.414586
     43          1           0        1.034021    4.674390   -1.029305
     44          1           0       -0.723033    4.098199   -0.993443
 ---------------------------------------------------------------------

 SCF Done:  E(RM062X) =  -1064.34100202     A.U. after   14 cycles

 The electronic state is 1-A.
 Alpha  occ. eigenvalues --  -67.01752 -19.67304 -19.62014 -19.61655 -10.68318
 Alpha  occ. eigenvalues --  -10.62105 -10.61193 -10.55732 -10.55687 -10.54504
 Alpha  occ. eigenvalues --  -10.54460 -10.54232 -10.53343 -10.53307 -10.52556
 Alpha  occ. eigenvalues --  -10.51353 -10.51018 -10.50887  -5.55201  -3.86389
 Alpha  occ. eigenvalues --   -3.86246  -3.86230  -1.22982  -1.14256  -1.13428
 Alpha  occ. eigenvalues --   -0.93619  -0.90833  -0.87927  -0.85041  -0.81036
 Alpha  occ. eigenvalues --   -0.79422  -0.78895  -0.77115  -0.76849  -0.73164
 Alpha  occ. eigenvalues --   -0.70490  -0.68402  -0.64800  -0.62476  -0.60042
 Alpha  occ. eigenvalues --   -0.57984  -0.55909  -0.55676  -0.54682  -0.54017
 Alpha  occ. eigenvalues --   -0.51565  -0.51058  -0.50266  -0.49785  -0.48702
 Alpha  occ. eigenvalues --   -0.47872  -0.47559  -0.47348  -0.46847  -0.46594
 Alpha  occ. eigenvalues --   -0.45903  -0.45579  -0.44810  -0.44603  -0.43939
 Alpha  occ. eigenvalues --   -0.43437  -0.43170  -0.42249  -0.41807  -0.41001
 Alpha  occ. eigenvalues --   -0.40597  -0.39487  -0.38760  -0.37152  -0.36529
 Alpha  occ. eigenvalues --   -0.36015  -0.34297  -0.33491  -0.31938
 Alpha virt. eigenvalues --    0.03217   0.03828   0.05058   0.06903   0.07123
 Alpha virt. eigenvalues --    0.07660   0.09105   0.09546   0.09786   0.10014
 Alpha virt. eigenvalues --    0.11139   0.11278   0.11568   0.11904   0.12497

 Mulliken charges:
               1
     1  C   -0.036618
     2  C   -0.188358
     3  C    0.286841
     4  C   -0.460557
     5  C    0.344249
     6  H    0.185961
     7  H    0.189856
     8  H    0.200603
     9  H    0.218596
    10  O   -0.243953
    11  O   -0.371115
    12  C   -0.251922
    13  C   -0.441678
    14  C   -0.494669
    15  O   -0.398268
    16  Si   0.456994
    17  C   -0.553380
    18  C   -0.581007
    19  C   -0.570650
    20  H    0.172520
    21  H    0.164486
    22  H    0.166886
    23  H    0.154472
    24  H    0.156144
    25  H    0.158729
    26  H    0.165523
    27  H    0.163843
    28  H    0.163518
    29  H    0.172559
    30  H    0.167702
    31  H    0.167799
    32  H    0.150846
    33  H    0.145477
    34  H    0.158177
    35  H    0.141399
    36  H    0.149804
    37  C   -0.383723
    38  C   -0.143607
    39  C   -0.316670
    40  H    0.194764
    41  H    0.187640
    42  H    0.159810
    43  H    0.146966
    44  H    0.144010
 Sum of Mulliken charges =   0.00000

 Dipole moment (field-independent basis, Debye):
    X=              2.2570    Y=             -4.0856    Z=             -3.0277  Tot=              5.5636
 Quadrupole moment (field-independent basis, Debye-Ang):
   XX=           -120.6689   YY=           -121.3164   ZZ=           -128.0640
   XY=              7.9565   XZ=             12.9245   YZ=             -7.2078

 1\1\GINC-CPU-E-68\SP\RM062X\def2TZVP\C14H26O3Si1\KE291\26-Jun-2019\0\\
 # m062x/def2tzvp int=ultrafine scrf=(solvent=chloroform)\\IP1_2ginp001
 \\0,1\C,0,-2.314229,-0.552391,-0.368994\C,0,-0.841134,-0.935202,-0.590
 736\C,0,0.097984,0.289727,-0.398498\C,0,-0.130569,0.811133,1.027083\C,
 0,-1.581442,1.071482,1.381133\H,0,-2.675157,-0.000006,-1.246288\H,0,-0
 .558583,-1.648957,0.194945\H,0,0.223403,0.065953,1.749799\H,0,0.420057
 ,1.734657,1.213559\O,0,-2.536968,0.351195,0.759415\O,0,-1.913943,1.860
 496,2.240751\C,0,-3.234096,-1.751561,-0.126072\C,0,-4.714114,-1.378085

 Normal termination of Gaussian 09 at Wed Jun 26 13:53:26 2019.
