 Gaussian 09, Revision D.01,
 Gaussian 09:  ES64L-G09RevD.01 24-Apr-2013

 --------------------------------------------------------
 # m062x/def2tzvp int=ultrafine scrf=(solvent=chloroform)
 --------------------------------------------------------

 ------------
 IP1_3ginp003
 ------------
 Symbolic Z-matrix:
 Charge =  0 Multiplicity = 1

                         Standard orientation:
 ---------------------------------------------------------------------
 Center     Atomic      Atomic             Coordinates (Angstroms)
 Number     Number       Type             X           Y           Z
 ---------------------------------------------------------------------
      1          6           0        2.358477    0.222846    0.286580
      2          6           0        0.990035    0.244894    0.981522
      3          6           0       -0.119503   -0.008209   -0.076645
      4          6           0        0.139176   -1.386923   -0.709060
      5          6           0        1.582536   -1.695998   -1.076372
      6          1           0        2.398606    1.039243   -0.442925
      7          1           0        0.853182    1.268110    1.350643
      8          1           0       -0.160526   -2.163428    0.003845
      9          1           0       -0.459337   -1.543927   -1.609040
     10          8           0        2.576852   -1.007795   -0.477223
     11          8           0        1.871801   -2.594010   -1.839872
     12          6           0        3.563114    0.361845    1.215796
     13          6           0        4.887882    0.537623    0.467010
     14          6           0        0.902851   -0.714386    2.179864
     15          8           0       -1.362878   -0.005940    0.620013
     16         14           0       -2.989446   -0.183557    0.221806
     17          6           0       -3.731258    1.454820   -0.350866
     18          6           0       -3.284719   -1.493671   -1.104974
     19          6           0       -3.792162   -0.709738    1.839758
     20          1           0       -4.364045   -1.623632   -1.247988
     21          1           0       -2.860967   -1.214523   -2.075291
     22          1           0       -2.869755   -2.465819   -0.820593
     23          1           0       -3.602528    0.023210    2.630892
     24          1           0       -4.877684   -0.804470    1.724515
     25          1           0       -3.405037   -1.676341    2.178615
     26          1           0       -4.808882    1.336155   -0.514510
     27          1           0       -3.596376    2.239674    0.400966
     28          1           0       -3.293049    1.808939   -1.289403
     29          1           0       -0.121547   -0.755330    2.552101
     30          1           0        1.215294   -1.731065    1.920573
     31          1           0        1.545782   -0.372859    2.994949
     32          1           0        3.616461   -0.516147    1.867808
     33          1           0        3.382074    1.229038    1.862903
     34          1           0        5.720578    0.633424    1.170192
     35          1           0        5.087997   -0.319486   -0.181352
     36          1           0        4.872867    1.437384   -0.158268
     37          6           0       -0.135396    1.079321   -1.187921
     38          6           0       -0.221855    2.494325   -0.685473
     39          6           0        0.581632    3.487825   -1.069800
     40          1           0       -1.004024    0.858679   -1.823353
     41          1           0        0.739182    0.970998   -1.838987
     42          1           0       -1.011723    2.697563    0.035349
     43          1           0        0.463688    4.496766   -0.685541
     44          1           0        1.380955    3.332150   -1.791235
 ---------------------------------------------------------------------

 SCF Done:  E(RM062X) =  -1064.34169531     A.U. after   14 cycles

 The electronic state is 1-A.
 Alpha  occ. eigenvalues --  -67.01754 -19.67248 -19.62027 -19.61631 -10.68281
 Alpha  occ. eigenvalues --  -10.62121 -10.60808 -10.55677 -10.55274 -10.55064
 Alpha  occ. eigenvalues --  -10.55010 -10.54073 -10.53809 -10.52775 -10.52523
 Alpha  occ. eigenvalues --  -10.51283 -10.51064 -10.50852  -5.55200  -3.86387
 Alpha  occ. eigenvalues --   -3.86244  -3.86230  -1.22885  -1.14210  -1.13403
 Alpha  occ. eigenvalues --   -0.93633  -0.90521  -0.88423  -0.84613  -0.80877
 Alpha  occ. eigenvalues --   -0.80243  -0.78292  -0.77057  -0.76831  -0.73299
 Alpha  occ. eigenvalues --   -0.70353  -0.68865  -0.65056  -0.60712  -0.59122
 Alpha  occ. eigenvalues --   -0.58727  -0.57284  -0.56483  -0.54235  -0.53326
 Alpha  occ. eigenvalues --   -0.52060  -0.50604  -0.50271  -0.49901  -0.49207
 Alpha  occ. eigenvalues --   -0.48164  -0.47844  -0.47126  -0.46604  -0.46309
 Alpha  occ. eigenvalues --   -0.45850  -0.45227  -0.44729  -0.44565  -0.44054
 Alpha  occ. eigenvalues --   -0.43583  -0.43211  -0.42378  -0.41698  -0.41328
 Alpha  occ. eigenvalues --   -0.40473  -0.39597  -0.38406  -0.36688  -0.36497
 Alpha  occ. eigenvalues --   -0.35660  -0.34650  -0.33702  -0.32169
 Alpha virt. eigenvalues --    0.02907   0.03510   0.04994   0.06684   0.07506
 Alpha virt. eigenvalues --    0.07602   0.08811   0.09594   0.09909   0.10325
 Alpha virt. eigenvalues --    0.10686   0.11265   0.11645   0.12110   0.12714

 Mulliken charges:
               1
     1  C   -0.049800
     2  C   -0.084511
     3  C    0.235253
     4  C   -0.478577
     5  C    0.346352
     6  H    0.171846
     7  H    0.187039
     8  H    0.229010
     9  H    0.191134
    10  O   -0.240797
    11  O   -0.371441
    12  C   -0.287218
    13  C   -0.443210
    14  C   -0.511660
    15  O   -0.400265
    16  Si   0.480407
    17  C   -0.583442
    18  C   -0.588782
    19  C   -0.576581
    20  H    0.172033
    21  H    0.167229
    22  H    0.173429
    23  H    0.159495
    24  H    0.157247
    25  H    0.157922
    26  H    0.168232
    27  H    0.167322
    28  H    0.165320
    29  H    0.172057
    30  H    0.167128
    31  H    0.171461
    32  H    0.162967
    33  H    0.157505
    34  H    0.150294
    35  H    0.158202
    36  H    0.140230
    37  C   -0.397044
    38  C   -0.132359
    39  C   -0.333472
    40  H    0.194024
    41  H    0.198089
    42  H    0.183741
    43  H    0.149149
    44  H    0.145040
 Sum of Mulliken charges =   0.00000

 Dipole moment (field-independent basis, Debye):
    X=             -2.7241    Y=              3.9052    Z=              2.3968  Tot=              5.3307
 Quadrupole moment (field-independent basis, Debye-Ang):
   XX=           -118.7082   YY=           -128.1478   ZZ=           -124.2921
   XY=             12.8060   XZ=              9.2033   YZ=             -8.1157

 Normal termination of Gaussian 09 at Wed Jun 26 13:54:50 2019.
