 Gaussian 09, Revision D.01,
 Gaussian 09:  ES64L-G09RevD.01 24-Apr-2013

 --------------------------------------------------------
 # m062x/def2tzvp int=ultrafine scrf=(solvent=chloroform)
 --------------------------------------------------------

 ------------
 IP1_4ginp009
 ------------
 Symbolic Z-matrix:
 Charge =  0 Multiplicity = 1

                         Standard orientation:
 ---------------------------------------------------------------------
 Center     Atomic      Atomic             Coordinates (Angstroms)
 Number     Number       Type             X           Y           Z
 ---------------------------------------------------------------------
      1          6           0        2.270076    0.471706   -0.508489
      2          6           0        0.980352    1.190918   -0.966450
      3          6           0       -0.257287    0.778432   -0.131918
      4          6           0        0.075822    1.057926    1.340652
      5          6           0        1.410635    0.529885    1.819683
      6          1           0        3.112625    1.083102   -0.853846
      7          1           0        1.144193    2.252480   -0.740129
      8          1           0        0.098872    2.143465    1.499056
      9          1           0       -0.692229    0.661003    2.006051
     10          8           0        2.435052    0.471967    0.944653
     11          8           0        1.618418    0.244999    2.981969
     12          6           0        2.504586   -0.963559   -0.996436
     13          6           0        3.892956   -1.494829   -0.624795
     14          6           0        0.784662    1.062955   -2.483410
     15          8           0       -0.463830   -0.621024   -0.324359
     16         14           0       -1.695288   -1.721833    0.010006
     17          6           0       -3.078971   -1.602315   -1.268421
     18          6           0       -0.848341   -3.395284   -0.132848
     19          6           0       -2.411868   -1.514160    1.744526
     20          1           0       -1.567383   -4.208398    0.017384
     21          1           0       -0.395387   -3.528284   -1.120846
     22          1           0       -0.057758   -3.504459    0.616737
     23          1           0       -3.135632   -2.315817    1.934232
     24          1           0       -1.635506   -1.583190    2.513644
     25          1           0       -2.939906   -0.564067    1.877774
     26          1           0       -3.636898   -0.663361   -1.199605
     27          1           0       -2.685052   -1.686752   -2.286940
     28          1           0       -3.792352   -2.421696   -1.120822
     29          1           0        1.723297    1.251561   -3.014531
     30          1           0        0.431928    0.065605   -2.755808
     31          1           0        0.055704    1.790711   -2.849431
     32          1           0        2.391849   -0.976155   -2.085704
     33          1           0        1.723262   -1.609871   -0.591346
     34          1           0        4.028899   -2.514041   -0.999602
     35          1           0        4.686614   -0.873193   -1.055824
     36          1           0        4.032049   -1.510592    0.459207
     37          6           0       -1.539541    1.558527   -0.541407
     38          6           0       -1.428272    3.059838   -0.539627
     39          6           0       -2.061778    3.868062    0.312845
     40          1           0       -2.341867    1.260120    0.143479
     41          1           0       -1.827037    1.211191   -1.540272
     42          1           0       -0.792558    3.503727   -1.305217
     43          1           0       -1.954269    4.947442    0.261649
     44          1           0       -2.716736    3.478983    1.089087
 ---------------------------------------------------------------------

 SCF Done:  E(RM062X) =  -1064.34012038     A.U. after   14 cycles

 The electronic state is 1-A.
 Alpha  occ. eigenvalues --  -67.01680 -19.66711 -19.61984 -19.61283 -10.67812
 Alpha  occ. eigenvalues --  -10.62057 -10.60684 -10.55584 -10.55291 -10.55247
 Alpha  occ. eigenvalues --  -10.54955 -10.54045 -10.53425 -10.53196 -10.52110
 Alpha  occ. eigenvalues --  -10.51187 -10.51007 -10.50770  -5.55126  -3.86313
 Alpha  occ. eigenvalues --   -3.86170  -3.86156  -1.22473  -1.13856  -1.13236
 Alpha  occ. eigenvalues --   -0.93520  -0.90518  -0.87839  -0.84798  -0.80659
 Alpha  occ. eigenvalues --   -0.80058  -0.78721  -0.76984  -0.76741  -0.73149
 Alpha  occ. eigenvalues --   -0.70100  -0.68777  -0.64455  -0.62200  -0.59658
 Alpha  occ. eigenvalues --   -0.57563  -0.56005  -0.55181  -0.54170  -0.53492
 Alpha  occ. eigenvalues --   -0.51760  -0.50916  -0.50379  -0.49464  -0.48559
 Alpha  occ. eigenvalues --   -0.47873  -0.47463  -0.47349  -0.47048  -0.46527
 Alpha  occ. eigenvalues --   -0.46182  -0.45241  -0.44962  -0.44498  -0.43862
 Alpha  occ. eigenvalues --   -0.43686  -0.43370  -0.42543  -0.41227  -0.40666
 Alpha  occ. eigenvalues --   -0.40169  -0.39350  -0.38498  -0.36871  -0.35774
 Alpha  occ. eigenvalues --   -0.35120  -0.34605  -0.34012  -0.31923
 Alpha virt. eigenvalues --    0.02770   0.04279   0.04831   0.06341   0.07366
 Alpha virt. eigenvalues --    0.07544   0.08810   0.09592   0.09931   0.10470
 Alpha virt. eigenvalues --    0.10631   0.11218   0.11504   0.12429   0.12579

 Mulliken charges:
               1
     1  C   -0.034619
     2  C   -0.138478
     3  C    0.267800
     4  C   -0.410143
     5  C    0.361819
     6  H    0.181665
     7  H    0.189658
     8  H    0.209915
     9  H    0.189654
    10  O   -0.253676
    11  O   -0.383108
    12  C   -0.266848
    13  C   -0.440233
    14  C   -0.522178
    15  O   -0.404162
    16  Si   0.485483
    17  C   -0.567136
    18  C   -0.599215
    19  C   -0.593741
    20  H    0.162390
    21  H    0.162865
    22  H    0.166363
    23  H    0.171740
    24  H    0.176539
    25  H    0.165968
    26  H    0.162899
    27  H    0.164233
    28  H    0.164006
    29  H    0.174415
    30  H    0.180405
    31  H    0.163280
    32  H    0.151684
    33  H    0.152440
    34  H    0.147734
    35  H    0.139104
    36  H    0.156992
    37  C   -0.446789
    38  C   -0.144674
    39  C   -0.317047
    40  H    0.188011
    41  H    0.225387
    42  H    0.162429
    43  H    0.151150
    44  H    0.146020
 Sum of Mulliken charges =   0.00000

 Dipole moment (field-independent basis, Debye):
    X=             -3.3300    Y=              1.3771    Z=             -5.0720  Tot=              6.2218
 Quadrupole moment (field-independent basis, Debye-Ang):
   XX=           -122.3371   YY=           -111.8273   ZZ=           -133.1083
   XY=              2.0276   XZ=            -14.6237   YZ=             -1.0345

 Normal termination of Gaussian 09 at Wed Jun 26 13:49:32 2019.
