 Gaussian 09, Revision D.01,
 Gaussian 09:  ES64L-G09RevD.01 24-Apr-2013

 --------------------------------------------------------
 # m062x/def2tzvp int=ultrafine scrf=(solvent=chloroform)
 --------------------------------------------------------

 ------------
 IP1_2ginp015
 ------------
 Symbolic Z-matrix:
 Charge =  0 Multiplicity = 1

                         Standard orientation:
 ---------------------------------------------------------------------
 Center     Atomic      Atomic             Coordinates (Angstroms)
 Number     Number       Type             X           Y           Z
 ---------------------------------------------------------------------
      1          6           0       -2.537355    0.116743   -0.609594
      2          6           0       -1.161507   -0.527840   -0.832643
      3          6           0       -0.013687    0.387688   -0.315336
      4          6           0       -0.284453    0.611809    1.181228
      5          6           0       -1.682089    1.100540    1.513005
      6          1           0       -2.656522    0.940735   -1.323840
      7          1           0       -1.097215   -1.432834   -0.215757
      8          1           0       -0.174155   -0.345079    1.706219
      9          1           0        0.420245    1.307639    1.637583
     10          8           0       -2.699819    0.733033    0.708736
     11          8           0       -1.927539    1.749977    2.508119
     12          6           0       -3.741459   -0.819818   -0.769899
     13          6           0       -3.755841   -2.034856    0.162513
     14          6           0       -0.998272   -0.947645   -2.300836
     15          8           0        1.217055   -0.284291   -0.538809
     16         14           0        2.413799   -1.052119    0.354970
     17          6           0        3.214218    0.101297    1.615781
     18          6           0        1.752297   -2.592726    1.226044
     19          6           0        3.673960   -1.554606   -0.947834
     20          1           0        2.581333   -3.147705    1.681159
     21          1           0        1.043336   -2.358780    2.027231
     22          1           0        1.252854   -3.264934    0.520138
     23          1           0        4.524888   -2.070894   -0.489525
     24          1           0        3.230805   -2.230424   -1.686694
     25          1           0        4.060015   -0.680180   -1.481594
     26          1           0        4.118620   -0.365104    2.023874
     27          1           0        3.505454    1.047495    1.149140
     28          1           0        2.554568    0.329047    2.459066
     29          1           0        0.029932   -1.266184   -2.482361
     30          1           0       -1.659784   -1.782780   -2.545760
     31          1           0       -1.229819   -0.128566   -2.989877
     32          1           0       -3.787468   -1.141085   -1.816101
     33          1           0       -4.638553   -0.215506   -0.595705
     34          1           0       -2.943554   -2.734732   -0.056992
     35          1           0       -3.666828   -1.726946    1.208588
     36          1           0       -4.696691   -2.582506    0.054767
     37          6           0        0.060019    1.732593   -1.092573
     38          6           0        1.136556    2.678252   -0.632525
     39          6           0        2.190586    3.039509   -1.366045
     40          1           0       -0.910730    2.239910   -1.012011
     41          1           0        0.215583    1.499526   -2.149876
     42          1           0        1.017541    3.112178    0.359961
     43          1           0        2.928767    3.744747   -0.995342
     44          1           0        2.348791    2.647244   -2.367962
 ---------------------------------------------------------------------

 SCF Done:  E(RM062X) =  -1064.33890251     A.U. after   14 cycles

 The electronic state is 1-A.
 Alpha  occ. eigenvalues --  -67.01620 -19.67392 -19.61830 -19.61827 -10.68441
 Alpha  occ. eigenvalues --  -10.62206 -10.61166 -10.55955 -10.55582 -10.54677
 Alpha  occ. eigenvalues --  -10.54539 -10.54250 -10.53409 -10.53257 -10.52842
 Alpha  occ. eigenvalues --  -10.51105 -10.50901 -10.50727  -5.55056  -3.86246
 Alpha  occ. eigenvalues --   -3.86099  -3.86088  -1.23070  -1.14375  -1.13403
 Alpha  occ. eigenvalues --   -0.93632  -0.90782  -0.88018  -0.84968  -0.80878
 Alpha  occ. eigenvalues --   -0.79645  -0.79039  -0.76912  -0.76715  -0.73738
 Alpha  occ. eigenvalues --   -0.69407  -0.69235  -0.64813  -0.61887  -0.60208
 Alpha  occ. eigenvalues --   -0.58540  -0.56387  -0.55682  -0.54509  -0.53471
 Alpha  occ. eigenvalues --   -0.52630  -0.50736  -0.49761  -0.49482  -0.49099
 Alpha  occ. eigenvalues --   -0.48294  -0.47490  -0.47305  -0.46978  -0.46548
 Alpha  occ. eigenvalues --   -0.45815  -0.45497  -0.44842  -0.44430  -0.44366
 Alpha  occ. eigenvalues --   -0.43554  -0.42790  -0.41999  -0.41586  -0.41242
 Alpha  occ. eigenvalues --   -0.40812  -0.39352  -0.38615  -0.36942  -0.36692
 Alpha  occ. eigenvalues --   -0.36001  -0.34106  -0.33458  -0.32047
 Alpha virt. eigenvalues --    0.03085   0.03438   0.05081   0.06648   0.07066
 Alpha virt. eigenvalues --    0.07182   0.09429   0.09733   0.09809   0.10136
 Alpha virt. eigenvalues --    0.10586   0.11095   0.11838   0.12005   0.12740

 Mulliken charges:
               1
     1  C   -0.004157
     2  C   -0.205060
     3  C    0.272244
     4  C   -0.480632
     5  C    0.354108
     6  H    0.186250
     7  H    0.201406
     8  H    0.203275
     9  H    0.204962
    10  O   -0.241290
    11  O   -0.368199
    12  C   -0.281745
    13  C   -0.464245
    14  C   -0.498668
    15  O   -0.382259
    16  Si   0.469351
    17  C   -0.570158
    18  C   -0.572874
    19  C   -0.570187
    20  H    0.167774
    21  H    0.161295
    22  H    0.162553
    23  H    0.153614
    24  H    0.155813
    25  H    0.158372
    26  H    0.166746
    27  H    0.168016
    28  H    0.165872
    29  H    0.172891
    30  H    0.169971
    31  H    0.165888
    32  H    0.165871
    33  H    0.160476
    34  H    0.145587
    35  H    0.158271
    36  H    0.157287
    37  C   -0.386604
    38  C   -0.127316
    39  C   -0.339207
    40  H    0.194093
    41  H    0.186671
    42  H    0.171506
    43  H    0.149214
    44  H    0.143225
 Sum of Mulliken charges =   0.00000

 Dipole moment (field-independent basis, Debye):
    X=              1.6866    Y=             -3.1705    Z=             -3.6623  Tot=              5.1293
 Quadrupole moment (field-independent basis, Debye-Ang):
   XX=           -120.1075   YY=           -122.9442   ZZ=           -127.6936
   XY=              8.0485   XZ=             13.8303   YZ=             -7.8544

 Normal termination of Gaussian 09 at Wed Jun 26 13:55:11 2019.
