 Gaussian 09, Revision D.01,
 Gaussian 09:  ES64L-G09RevD.01 24-Apr-2013

 --------------------------------------------------------
 # m062x/def2tzvp int=ultrafine scrf=(solvent=chloroform)
 --------------------------------------------------------

 ------------
 IP1_4ginp001
 ------------
 Symbolic Z-matrix:
 Charge =  0 Multiplicity = 1

                         Standard orientation:
 ---------------------------------------------------------------------
 Center     Atomic      Atomic             Coordinates (Angstroms)
 Number     Number       Type             X           Y           Z
 ---------------------------------------------------------------------
      1          6           0       -2.358632    0.147914    0.302777
      2          6           0       -0.982900    0.262237    0.974847
      3          6           0        0.122638    0.124925   -0.107987
      4          6           0       -0.035737   -1.254757   -0.767594
      5          6           0       -1.454701   -1.645572   -1.151287
      6          1           0       -2.480572    0.984034   -0.394744
      7          1           0       -0.921374    1.285207    1.364304
      8          1           0        0.578260   -1.352796   -1.667022
      9          1           0        0.303081   -2.026601   -0.068014
     10          8           0       -2.489209   -1.066959   -0.506250
     11          8           0       -1.684384   -2.518213   -1.962619
     12          6           0       -3.552414    0.150966    1.255745
     13          6           0       -4.901468    0.240683    0.535686
     14          6           0       -0.797291   -0.710754    2.150396
     15          8           0        1.378728    0.249537    0.554480
     16         14           0        2.968770   -0.198933    0.229603
     17          6           0        3.214379   -2.061016    0.419803
     18          6           0        3.536519    0.329343   -1.492224
     19          6           0        3.957384    0.713678    1.543656
     20          1           0        4.600974    0.095737   -1.613342
     21          1           0        2.998268   -0.191277   -2.291392
     22          1           0        3.414890    1.406421   -1.647334
     23          1           0        5.025031    0.482921    1.457074
     24          1           0        3.839625    1.797994    1.447005
     25          1           0        3.634315    0.429745    2.550571
     26          1           0        4.283541   -2.298660    0.368926
     27          1           0        2.842511   -2.419256    1.385643
     28          1           0        2.714826   -2.632944   -0.368452
     29          1           0       -1.452465   -0.439523    2.981919
     30          1           0       -1.029339   -1.744852    1.875673
     31          1           0        0.232750   -0.673536    2.507826
     32          1           0       -3.432468    1.007101    1.931231
     33          1           0       -3.519341   -0.750614    1.876421
     34          1           0       -5.725304    0.239106    1.255637
     35          1           0       -4.974908    1.161013   -0.054531
     36          1           0       -5.040961   -0.605799   -0.141822
     37          6           0        0.028444    1.235832   -1.192821
     38          6           0        0.075279    2.638566   -0.653478
     39          6           0       -0.796304    3.602659   -0.955586
     40          1           0       -0.870695    1.099930   -1.803983
     41          1           0        0.878282    1.077640   -1.868410
     42          1           0        0.899588    2.856921    0.023695
     43          1           0       -0.701275    4.604831   -0.547819
     44          1           0       -1.632264    3.429162   -1.629987
 ---------------------------------------------------------------------

 SCF Done:  E(RM062X) =  -1064.34157066     A.U. after   14 cycles

 The electronic state is 1-A.
 Alpha  occ. eigenvalues --  -67.01742 -19.67295 -19.62041 -19.61740 -10.68393
 Alpha  occ. eigenvalues --  -10.62096 -10.60848 -10.55900 -10.55283 -10.54860
 Alpha  occ. eigenvalues --  -10.54743 -10.54092 -10.53647 -10.52868 -10.52526
 Alpha  occ. eigenvalues --  -10.51268 -10.51083 -10.50877  -5.55191  -3.86377
 Alpha  occ. eigenvalues --   -3.86234  -3.86223  -1.22945  -1.14294  -1.13420
 Alpha  occ. eigenvalues --   -0.93622  -0.90508  -0.88372  -0.84679  -0.80939
 Alpha  occ. eigenvalues --   -0.80160  -0.78299  -0.77015  -0.76875  -0.73285
 Alpha  occ. eigenvalues --   -0.70363  -0.68816  -0.64892  -0.60819  -0.59350
 Alpha  occ. eigenvalues --   -0.58832  -0.57081  -0.56491  -0.54316  -0.53241
 Alpha  occ. eigenvalues --   -0.52001  -0.50456  -0.50333  -0.49838  -0.49112
 Alpha  occ. eigenvalues --   -0.48178  -0.47682  -0.47583  -0.46729  -0.46194
 Alpha  occ. eigenvalues --   -0.45935  -0.45201  -0.44649  -0.44502  -0.44104
 Alpha  occ. eigenvalues --   -0.43589  -0.43171  -0.42442  -0.41728  -0.41266
 Alpha  occ. eigenvalues --   -0.40512  -0.39615  -0.38310  -0.36689  -0.36504
 Alpha  occ. eigenvalues --   -0.35841  -0.34536  -0.33835  -0.32015
 Alpha virt. eigenvalues --    0.03084   0.03631   0.04757   0.06650   0.07460
 Alpha virt. eigenvalues --    0.07670   0.08826   0.09661   0.09830   0.10114
 Alpha virt. eigenvalues --    0.10685   0.11162   0.11406   0.12123   0.12623

 Mulliken charges:
               1
     1  C   -0.055949
     2  C   -0.078031
     3  C    0.224590
     4  C   -0.513974
     5  C    0.347974
     6  H    0.173356
     7  H    0.189852
     8  H    0.201015
     9  H    0.232990
    10  O   -0.239897
    11  O   -0.370353
    12  C   -0.288205
    13  C   -0.443292
    14  C   -0.519224
    15  O   -0.404390
    16  Si   0.501562
    17  C   -0.586807
    18  C   -0.593745
    19  C   -0.561822
    20  H    0.172094
    21  H    0.165971
    22  H    0.170300
    23  H    0.154605
    24  H    0.156728
    25  H    0.158619
    26  H    0.166526
    27  H    0.167414
    28  H    0.167591
    29  H    0.173355
    30  H    0.169320
    31  H    0.169360
    32  H    0.158106
    33  H    0.162888
    34  H    0.150321
    35  H    0.140413
    36  H    0.158223
    37  C   -0.364157
    38  C   -0.124780
    39  C   -0.329422
    40  H    0.192821
    41  H    0.184594
    42  H    0.170585
    43  H    0.148473
    44  H    0.144400
 Sum of Mulliken charges =   0.00000

 Dipole moment (field-independent basis, Debye):
    X=              2.4069    Y=              3.4787    Z=              2.7023  Tot=              5.0197
 Quadrupole moment (field-independent basis, Debye-Ang):
   XX=           -116.8722   YY=           -128.5238   ZZ=           -124.9810
   XY=            -12.1148   XZ=             -9.0143   YZ=             -8.8202

 Normal termination of Gaussian 09 at Wed Jun 26 13:54:39 2019.
