 Gaussian 09, Revision D.01,
 Gaussian 09:  ES64L-G09RevD.01 24-Apr-2013

 --------------------------------------------------------
 # m062x/def2tzvp int=ultrafine scrf=(solvent=chloroform)
 --------------------------------------------------------

 ------------
 IP1_2ginp016
 ------------
 Symbolic Z-matrix:
 Charge =  0 Multiplicity = 1

                         Standard orientation:
 ---------------------------------------------------------------------
 Center     Atomic      Atomic             Coordinates (Angstroms)
 Number     Number       Type             X           Y           Z
 ---------------------------------------------------------------------
      1          6           0       -2.306276    0.026995   -0.403372
      2          6           0       -0.826266    0.062418   -0.808665
      3          6           0        0.057813    0.438912    0.415204
      4          6           0       -0.163274   -0.677266    1.451095
      5          6           0       -1.617779   -0.965902    1.776996
      6          1           0       -2.638301    1.053533   -0.205944
      7          1           0       -0.522220   -0.957973   -1.073881
      8          1           0        0.247707   -1.618809    1.067469
      9          1           0        0.347168   -0.465175    2.393206
     10          8           0       -2.553700   -0.704520    0.841935
     11          8           0       -1.962399   -1.474964    2.823031
     12          6           0       -3.264902   -0.588935   -1.429465
     13          6           0       -2.951736   -2.032103   -1.835466
     14          6           0       -0.622905    0.938957   -2.052889
     15          8           0        1.423817    0.521271    0.023150
     16         14           0        2.698461   -0.556730   -0.199588
     17          6           0        2.214662   -2.031870   -1.275838
     18          6           0        4.001424    0.480162   -1.073213
     19          6           0        3.370828   -1.162577    1.456172
     20          1           0        4.912182   -0.103545   -1.247469
     21          1           0        3.641864    0.838135   -2.043498
     22          1           0        4.274410    1.354519   -0.473279
     23          1           0        4.287831   -1.742532    1.299064
     24          1           0        3.619729   -0.319968    2.110119
     25          1           0        2.663532   -1.804604    1.990200
     26          1           0        3.102107   -2.642790   -1.479446
     27          1           0        1.475412   -2.685259   -0.800261
     28          1           0        1.808468   -1.707779   -2.239688
     29          1           0        0.443627    1.078495   -2.240597
     30          1           0       -1.059990    0.463135   -2.935368
     31          1           0       -1.075182    1.926538   -1.936302
     32          1           0       -3.283990    0.060616   -2.311166
     33          1           0       -4.268745   -0.541933   -0.992931
     34          1           0       -3.741746   -2.423289   -2.483245
     35          1           0       -2.008805   -2.111599   -2.385727
     36          1           0       -2.888556   -2.681231   -0.956986
     37          6           0       -0.275133    1.797809    1.091794
     38          6           0       -0.040050    3.039299    0.276099
     39          6           0       -0.887933    4.066356    0.195140
     40          1           0        0.377132    1.842523    1.975215
     41          1           0       -1.303554    1.789871    1.470360
     42          1           0        0.917659    3.089854   -0.237917
     43          1           0       -0.647681    4.958996   -0.375090
     44          1           0       -1.851097    4.056665    0.700928
 ---------------------------------------------------------------------

 SCF Done:  E(RM062X) =  -1064.33933398     A.U. after   14 cycles

 The electronic state is 1-A.
 Alpha  occ. eigenvalues --  -67.01799 -19.67372 -19.62075 -19.61758 -10.68405
 Alpha  occ. eigenvalues --  -10.62179 -10.61130 -10.55941 -10.55585 -10.54630
 Alpha  occ. eigenvalues --  -10.54566 -10.54205 -10.53220 -10.53035 -10.52838
 Alpha  occ. eigenvalues --  -10.51401 -10.51054 -10.50908  -5.55248  -3.86436
 Alpha  occ. eigenvalues --   -3.86291  -3.86276  -1.23020  -1.14327  -1.13470
 Alpha  occ. eigenvalues --   -0.93633  -0.90648  -0.88110  -0.84911  -0.81048
 Alpha  occ. eigenvalues --   -0.79763  -0.78839  -0.77155  -0.76874  -0.73632
 Alpha  occ. eigenvalues --   -0.69330  -0.69119  -0.64729  -0.62449  -0.59322
 Alpha  occ. eigenvalues --   -0.59004  -0.56600  -0.55654  -0.54431  -0.53305
 Alpha  occ. eigenvalues --   -0.51668  -0.50778  -0.49909  -0.49858  -0.48868
 Alpha  occ. eigenvalues --   -0.48262  -0.47813  -0.47095  -0.46812  -0.46517
 Alpha  occ. eigenvalues --   -0.46103  -0.45766  -0.45181  -0.44648  -0.44284
 Alpha  occ. eigenvalues --   -0.43116  -0.43021  -0.42761  -0.41615  -0.41319
 Alpha  occ. eigenvalues --   -0.40757  -0.39472  -0.38322  -0.37108  -0.36685
 Alpha  occ. eigenvalues --   -0.36053  -0.34365  -0.33627  -0.31545
 Alpha virt. eigenvalues --    0.03239   0.03511   0.04837   0.06623   0.06845
 Alpha virt. eigenvalues --    0.07087   0.09465   0.09686   0.09861   0.10053
 Alpha virt. eigenvalues --    0.10871   0.11377   0.11691   0.12152   0.12594

 Mulliken charges:
               1
     1  C    0.022895
     2  C   -0.251488
     3  C    0.253877
     4  C   -0.453703
     5  C    0.335120
     6  H    0.186243
     7  H    0.204107
     8  H    0.202381
     9  H    0.210910
    10  O   -0.240489
    11  O   -0.369444
    12  C   -0.285722
    13  C   -0.468330
    14  C   -0.488658
    15  O   -0.395240
    16  Si   0.458866
    17  C   -0.579565
    18  C   -0.573810
    19  C   -0.555810
    20  H    0.155734
    21  H    0.156882
    22  H    0.159863
    23  H    0.162599
    24  H    0.165390
    25  H    0.162956
    26  H    0.174573
    27  H    0.165128
    28  H    0.166950
    29  H    0.170152
    30  H    0.170642
    31  H    0.177181
    32  H    0.168766
    33  H    0.160303
    34  H    0.158022
    35  H    0.146663
    36  H    0.158872
    37  C   -0.349877
    38  C   -0.131791
    39  C   -0.332677
    40  H    0.174223
    41  H    0.188772
    42  H    0.168156
    43  H    0.147892
    44  H    0.142488
 Sum of Mulliken charges =   0.00000

 Dipole moment (field-independent basis, Debye):
    X=              2.5023    Y=              1.1499    Z=             -4.5387  Tot=              5.3088
 Quadrupole moment (field-independent basis, Debye-Ang):
   XX=           -120.6680   YY=           -121.9793   ZZ=           -130.5256
   XY=             -9.4846   XZ=             12.4204   YZ=              7.3955

 Normal termination of Gaussian 09 at Wed Jun 26 13:55:43 2019.
