 Gaussian 09, Revision D.01,
 Gaussian 09:  ES64L-G09RevD.01 24-Apr-2013

 --------------------------------------------------------
 # m062x/def2tzvp int=ultrafine scrf=(solvent=chloroform)
 --------------------------------------------------------

 ------------
 IP1_2ginp006
 ------------
 Symbolic Z-matrix:
 Charge =  0 Multiplicity = 1

                         Standard orientation:
 ---------------------------------------------------------------------
 Center     Atomic      Atomic             Coordinates (Angstroms)
 Number     Number       Type             X           Y           Z
 ---------------------------------------------------------------------
      1          6           0       -2.356946    0.415601    0.118053
      2          6           0       -1.182014    0.203283   -0.853180
      3          6           0        0.126069    0.840925   -0.268746
      4          6           0        0.029220    0.887679    1.284466
      5          6           0       -0.834657   -0.187423    1.896075
      6          1           0       -2.450333    1.481190    0.369925
      7          1           0       -0.997846   -0.876098   -0.859273
      8          1           0        1.018544    0.860214    1.737187
      9          1           0       -0.423139    1.844699    1.573385
     10          8           0       -2.065373   -0.314088    1.351872
     11          8           0       -0.519231   -0.891147    2.834451
     12          6           0       -3.728378   -0.087872   -0.337633
     13          6           0       -3.801559   -1.583581   -0.662263
     14          6           0       -1.492011    0.623851   -2.295291
     15          8           0        1.249497    0.082608   -0.712095
     16         14           0        2.011375   -1.362068   -0.292960
     17          6           0        2.820564   -1.256267    1.407222
     18          6           0        0.837832   -2.841118   -0.323706
     19          6           0        3.320201   -1.560660   -1.629350
     20          1           0        0.346638   -2.956145   -1.295791
     21          1           0        1.411378   -3.756652   -0.134791
     22          1           0        0.063244   -2.781667    0.447538
     23          1           0        2.865165   -1.634852   -2.622507
     24          1           0        4.011481   -0.711564   -1.639253
     25          1           0        3.909173   -2.469473   -1.461935
     26          1           0        3.446504   -2.141647    1.570710
     27          1           0        3.465246   -0.375093    1.494992
     28          1           0        2.078230   -1.222945    2.210704
     29          1           0       -0.604070    0.503989   -2.921886
     30          1           0       -2.279508   -0.001820   -2.721973
     31          1           0       -1.820079    1.665388   -2.366397
     32          1           0       -4.037510    0.509495   -1.202186
     33          1           0       -4.438348    0.144760    0.464229
     34          1           0       -3.496633   -2.184294    0.198600
     35          1           0       -4.826373   -1.863442   -0.923512
     36          1           0       -3.160825   -1.855663   -1.506838
     37          6           0        0.367340    2.282931   -0.788954
     38          6           0        1.551458    2.968085   -0.165064
     39          6           0        1.505008    4.135083    0.479489
     40          1           0       -0.535646    2.883767   -0.627607
     41          1           0        0.527336    2.215325   -1.870542
     42          1           0        2.505461    2.455109   -0.275634
     43          1           0        2.397464    4.591992    0.897170
     44          1           0        0.573283    4.682291    0.606591
 ---------------------------------------------------------------------

 SCF Done:  E(RM062X) =  -1064.34127637     A.U. after   14 cycles

 The electronic state is 1-A.
 Alpha  occ. eigenvalues --  -67.01485 -19.67322 -19.62015 -19.61895 -10.68101
 Alpha  occ. eigenvalues --  -10.62469 -10.61133 -10.55714 -10.55634 -10.54653
 Alpha  occ. eigenvalues --  -10.54470 -10.54365 -10.53552 -10.53491 -10.52743
 Alpha  occ. eigenvalues --  -10.50926 -10.50688 -10.50597  -5.54935  -3.86123
 Alpha  occ. eigenvalues --   -3.85977  -3.85963  -1.23143  -1.14478  -1.13206
 Alpha  occ. eigenvalues --   -0.93493  -0.90767  -0.87799  -0.84866  -0.80865
 Alpha  occ. eigenvalues --   -0.79420  -0.79289  -0.76753  -0.76568  -0.73869
 Alpha  occ. eigenvalues --   -0.69164  -0.68703  -0.64608  -0.62201  -0.60814
 Alpha  occ. eigenvalues --   -0.58246  -0.57343  -0.55381  -0.54562  -0.51988
 Alpha  occ. eigenvalues --   -0.51396  -0.50951  -0.50365  -0.49593  -0.48812
 Alpha  occ. eigenvalues --   -0.48196  -0.47863  -0.47309  -0.47120  -0.46470
 Alpha  occ. eigenvalues --   -0.45766  -0.45244  -0.44717  -0.44262  -0.43977
 Alpha  occ. eigenvalues --   -0.43362  -0.43011  -0.42972  -0.41468  -0.41099
 Alpha  occ. eigenvalues --   -0.40996  -0.40014  -0.38641  -0.37010  -0.36453
 Alpha  occ. eigenvalues --   -0.35538  -0.34211  -0.33368  -0.31997
 Alpha virt. eigenvalues --    0.03221   0.03654   0.04923   0.06156   0.06947
 Alpha virt. eigenvalues --    0.07650   0.08969   0.09798   0.10160   0.10606
 Alpha virt. eigenvalues --    0.11270   0.11508   0.11887   0.12286   0.12613

 Mulliken charges:
               1
     1  C    0.047551
     2  C   -0.225452
     3  C    0.215585
     4  C   -0.470647
     5  C    0.339166
     6  H    0.176299
     7  H    0.198353
     8  H    0.223710
     9  H    0.221485
    10  O   -0.233695
    11  O   -0.365384
    12  C   -0.310565
    13  C   -0.459810
    14  C   -0.506281
    15  O   -0.384280
    16  Si   0.493284
    17  C   -0.582617
    18  C   -0.596322
    19  C   -0.583312
    20  H    0.165912
    21  H    0.171222
    22  H    0.179093
    23  H    0.155836
    24  H    0.156633
    25  H    0.153218
    26  H    0.165069
    27  H    0.165595
    28  H    0.172927
    29  H    0.177993
    30  H    0.169067
    31  H    0.180030
    32  H    0.171313
    33  H    0.159989
    34  H    0.162603
    35  H    0.156779
    36  H    0.146005
    37  C   -0.366963
    38  C   -0.132624
    39  C   -0.320890
    40  H    0.183170
    41  H    0.182064
    42  H    0.161281
    43  H    0.147413
    44  H    0.140201
 Sum of Mulliken charges =   0.00000

 Dipole moment (field-independent basis, Debye):
    X=             -1.0772    Y=              2.5481    Z=             -4.0541  Tot=              4.9080
 Quadrupole moment (field-independent basis, Debye-Ang):
   XX=           -112.8628   YY=           -116.9037   ZZ=           -133.4134
   XY=             -6.0046   XZ=              6.8380   YZ=              8.2700

 1\1\GINC-CPU-E-68\SP\RM062X\def2TZVP\C14H26O3Si1\KE291\26-Jun-2019\0\\
 # m062x/def2tzvp int=ultrafine scrf=(solvent=chloroform)\\IP1_2ginp006
 \\0,1\C,0,-2.356946,0.415601,0.118053\C,0,-1.182014,0.203283,-0.85318\
 C,0,0.126069,0.840925,-0.268746\C,0,0.02922,0.887679,1.284466\C,0,-0.8
 34657,-0.187423,1.896075\H,0,-2.450333,1.48119,0.369925\H,0,-0.997846,
 -0.876098,-0.859273\H,0,1.018544,0.860214,1.737187\H,0,-0.423139,1.844
 699,1.573385\O,0,-2.065373,-0.314088,1.351872\O,0,-0.519231,-0.891147,
 2.834451\C,0,-3.728378,-0.087872,-0.337633\C,0,-3.801559,-1.583581,-0.

 Normal termination of Gaussian 09 at Wed Jun 26 13:55:02 2019.
