 Gaussian 09, Revision D.01,
 Gaussian 09:  ES64L-G09RevD.01 24-Apr-2013

 --------------------------------------------------------
 # m062x/def2tzvp int=ultrafine scrf=(solvent=chloroform)
 --------------------------------------------------------

 ------------
 IP1_2ginp005
 ------------
 Symbolic Z-matrix:
 Charge =  0 Multiplicity = 1

                         Standard orientation:
 ---------------------------------------------------------------------
 Center     Atomic      Atomic             Coordinates (Angstroms)
 Number     Number       Type             X           Y           Z
 ---------------------------------------------------------------------
      1          6           0       -2.311951   -0.038101   -0.186586
      2          6           0       -1.029159    0.034611   -1.034588
      3          6           0        0.095183    0.796286   -0.252621
      4          6           0       -0.158452    0.658320    1.277022
      5          6           0       -0.887212   -0.598778    1.683039
      6          1           0       -2.605899    0.961617    0.164414
      7          1           0       -0.681831   -1.002417   -1.104863
      8          1           0        0.773059    0.733931    1.834544
      9          1           0       -0.787857    1.496950    1.599949
     10          8           0       -2.017771   -0.858471    0.989066
     11          8           0       -0.550852   -1.344734    2.580613
     12          6           0       -3.512420   -0.696658   -0.860626
     13          6           0       -4.735100   -0.816073    0.054905
     14          6           0       -1.247351    0.538330   -2.466583
     15          8           0        1.363762    0.269225   -0.635332
     16         14           0        2.307019   -1.079669   -0.268696
     17          6           0        2.949580   -1.020913    1.503645
     18          6           0        1.387071   -2.707327   -0.533536
     19          6           0        3.733886   -0.946845   -1.486815
     20          1           0        2.082478   -3.540921   -0.377514
     21          1           0        0.559231   -2.842683    0.169740
     22          1           0        0.991812   -2.795343   -1.551090
     23          1           0        4.279747   -0.006374   -1.358815
     24          1           0        4.443934   -1.768657   -1.341755
     25          1           0        3.377299   -0.990374   -2.521138
     26          1           0        3.437344   -0.066154    1.727857
     27          1           0        2.148860   -1.180158    2.232555
     28          1           0        3.692494   -1.814129    1.649780
     29          1           0       -0.288339    0.618163   -2.985553
     30          1           0       -1.867572   -0.160897   -3.032447
     31          1           0       -1.733597    1.518423   -2.498335
     32          1           0       -3.212391   -1.687538   -1.223664
     33          1           0       -3.774270   -0.100912   -1.741100
     34          1           0       -5.571907   -1.273921   -0.480754
     35          1           0       -4.514453   -1.430151    0.931328
     36          1           0       -5.062619    0.168812    0.406628
     37          6           0        0.147418    2.305201   -0.609699
     38          6           0        1.139029    3.092482    0.201384
     39          6           0        0.843618    4.169908    0.930337
     40          1           0       -0.852278    2.741691   -0.497425
     41          1           0        0.419712    2.377982   -1.668331
     42          1           0        2.168160    2.739640    0.159256
     43          1           0        1.605658    4.710447    1.484240
     44          1           0       -0.171000    4.557523    0.993802
 ---------------------------------------------------------------------

 SCF Done:  E(RM062X) =  -1064.34115577     A.U. after   13 cycles

 The electronic state is 1-A.
 Alpha  occ. eigenvalues --  -67.01478 -19.67344 -19.62012 -19.61884 -10.68107
 Alpha  occ. eigenvalues --  -10.62433 -10.61126 -10.55713 -10.55650 -10.54645
 Alpha  occ. eigenvalues --  -10.54458 -10.54334 -10.53512 -10.53480 -10.52684
 Alpha  occ. eigenvalues --  -10.50903 -10.50679 -10.50610  -5.54927  -3.86115
 Alpha  occ. eigenvalues --   -3.85969  -3.85955  -1.23155  -1.14484  -1.13195
 Alpha  occ. eigenvalues --   -0.93466  -0.90763  -0.87877  -0.85098  -0.80888
 Alpha  occ. eigenvalues --   -0.79383  -0.78930  -0.76739  -0.76568  -0.73434
 Alpha  occ. eigenvalues --   -0.69592  -0.68383  -0.64849  -0.63016  -0.60808
 Alpha  occ. eigenvalues --   -0.57410  -0.57143  -0.55406  -0.54695  -0.52706
 Alpha  occ. eigenvalues --   -0.51321  -0.50448  -0.50228  -0.49193  -0.48830
 Alpha  occ. eigenvalues --   -0.48573  -0.47702  -0.47362  -0.47104  -0.45969
 Alpha  occ. eigenvalues --   -0.45795  -0.45437  -0.44746  -0.44346  -0.44246
 Alpha  occ. eigenvalues --   -0.43717  -0.43269  -0.42043  -0.41380  -0.41124
 Alpha  occ. eigenvalues --   -0.40604  -0.40537  -0.38698  -0.37006  -0.36535
 Alpha  occ. eigenvalues --   -0.35535  -0.34213  -0.33341  -0.31978
 Alpha virt. eigenvalues --    0.03229   0.03673   0.05048   0.06267   0.07055
 Alpha virt. eigenvalues --    0.07756   0.08855   0.09619   0.10434   0.10643
 Alpha virt. eigenvalues --    0.11240   0.11707   0.11933   0.12209   0.12650

 Mulliken charges:
               1
     1  C   -0.004226
     2  C   -0.147087
     3  C    0.203481
     4  C   -0.464420
     5  C    0.340305
     6  H    0.173471
     7  H    0.189344
     8  H    0.223412
     9  H    0.221792
    10  O   -0.235085
    11  O   -0.365374
    12  C   -0.298938
    13  C   -0.441154
    14  C   -0.523887
    15  O   -0.383355
    16  Si   0.492743
    17  C   -0.581119
    18  C   -0.601926
    19  C   -0.582848
    20  H    0.170581
    21  H    0.181827
    22  H    0.166475
    23  H    0.156723
    24  H    0.153036
    25  H    0.155834
    26  H    0.165295
    27  H    0.172107
    28  H    0.164942
    29  H    0.177649
    30  H    0.176127
    31  H    0.179334
    32  H    0.161071
    33  H    0.160492
    34  H    0.150679
    35  H    0.159216
    36  H    0.140223
    37  C   -0.368392
    38  C   -0.132243
    39  C   -0.321238
    40  H    0.183672
    41  H    0.182718
    42  H    0.161411
    43  H    0.147326
    44  H    0.140011
 Sum of Mulliken charges =   0.00000

 Dipole moment (field-independent basis, Debye):
    X=             -1.0939    Y=              2.8111    Z=             -3.8968  Tot=              4.9279
 Quadrupole moment (field-independent basis, Debye-Ang):
   XX=           -112.6150   YY=           -121.1557   ZZ=           -129.5165
   XY=             -6.5628   XZ=              6.6079   YZ=             10.1392

 1\1\GINC-CPU-E-68\SP\RM062X\def2TZVP\C14H26O3Si1\KE291\26-Jun-2019\0\\
 # m062x/def2tzvp int=ultrafine scrf=(solvent=chloroform)\\IP1_2ginp005
 \\0,1\C,0,-2.311951,-0.038101,-0.186586\C,0,-1.029159,0.034611,-1.0345
 88\C,0,0.095183,0.796286,-0.252621\C,0,-0.158452,0.65832,1.277022\C,0,
 -0.887212,-0.598778,1.683039\H,0,-2.605899,0.961617,0.164414\H,0,-0.68
 1831,-1.002417,-1.104863\H,0,0.773059,0.733931,1.834544\H,0,-0.787857,
 1.49695,1.599949\O,0,-2.017771,-0.858471,0.989066\O,0,-0.550852,-1.344
 734,2.580613\C,0,-3.51242,-0.696658,-0.860626\C,0,-4.7351,-0.816073,0.

 Normal termination of Gaussian 09 at Wed Jun 26 13:52:29 2019.
