 Gaussian 09, Revision D.01,
 Gaussian 09:  ES64L-G09RevD.01 24-Apr-2013

 --------------------------------------------------------
 # m062x/def2tzvp int=ultrafine scrf=(solvent=chloroform)
 --------------------------------------------------------

 ------------
 IP1_1ginp010
 ------------
 Symbolic Z-matrix:
 Charge =  0 Multiplicity = 1

                         Standard orientation:
 ---------------------------------------------------------------------
 Center     Atomic      Atomic             Coordinates (Angstroms)
 Number     Number       Type             X           Y           Z
 ---------------------------------------------------------------------
      1          6           0        2.301764   -0.601861   -0.109883
      2          6           0        0.855635   -1.117194   -0.206284
      3          6           0       -0.208977   -0.003176    0.000238
      4          6           0        0.113786    1.127069   -0.990749
      5          6           0        1.557795    1.581972   -1.046882
      6          1           0        2.555063   -0.436540    0.942605
      7          1           0        0.689827   -1.457929   -1.237245
      8          1           0       -0.127215    0.757753   -1.995226
      9          1           0       -0.501032    2.013903   -0.822941
     10          8           0        2.523885    0.692989   -0.754112
     11          8           0        1.876505    2.695074   -1.414136
     12          6           0        3.326892   -1.549322   -0.738540
     13          6           0        4.778025   -1.091890   -0.561677
     14          6           0        0.644975   -2.318446    0.728521
     15          8           0       -1.445888   -0.603868   -0.392041
     16         14           0       -3.078042   -0.207552   -0.271140
     17          6           0       -3.751930   -0.623786    1.442393
     18          6           0       -3.414720    1.607165   -0.668577
     19          6           0       -3.899810   -1.309251   -1.555307
     20          1           0       -2.956528    2.294151    0.050476
     21          1           0       -3.054904    1.874257   -1.667572
     22          1           0       -4.495643    1.789935   -0.647464
     23          1           0       -4.987239   -1.174789   -1.544712
     24          1           0       -3.542557   -1.077877   -2.564121
     25          1           0       -3.692184   -2.366510   -1.360114
     26          1           0       -4.841694   -0.504378    1.456932
     27          1           0       -3.529732   -1.662338    1.710571
     28          1           0       -3.338931    0.020432    2.224738
     29          1           0        1.207045   -3.191234    0.387763
     30          1           0        0.962494   -2.097401    1.752859
     31          1           0       -0.412097   -2.591301    0.746586
     32          1           0        3.089423   -1.654860   -1.804690
     33          1           0        3.200082   -2.538761   -0.287220
     34          1           0        5.465827   -1.804974   -1.026131
     35          1           0        4.942078   -0.113000   -1.018602
     36          1           0        5.041194   -1.016647    0.499357
     37          6           0       -0.343992    0.518399    1.458995
     38          6           0        0.812378    1.281737    2.050174
     39          6           0        1.415840    0.972105    3.199605
     40          1           0       -0.602530   -0.324258    2.106944
     41          1           0       -1.213085    1.190424    1.458490
     42          1           0        1.130216    2.179359    1.520300
     43          1           0        2.217835    1.583014    3.602803
     44          1           0        1.124889    0.100614    3.781719
 ---------------------------------------------------------------------

 SCF Done:  E(RM062X) =  -1064.33923482     A.U. after   14 cycles

 The electronic state is 1-A.
 Alpha  occ. eigenvalues --  -67.01671 -19.67097 -19.61932 -19.61500 -10.68152
 Alpha  occ. eigenvalues --  -10.62225 -10.60667 -10.55563 -10.55433 -10.55316
 Alpha  occ. eigenvalues --  -10.55065 -10.53987 -10.53932 -10.53181 -10.52396
 Alpha  occ. eigenvalues --  -10.51250 -10.51011 -10.50813  -5.55122  -3.86308
 Alpha  occ. eigenvalues --   -3.86167  -3.86152  -1.22842  -1.14065  -1.13320
 Alpha  occ. eigenvalues --   -0.93486  -0.90744  -0.88130  -0.84907  -0.80678
 Alpha  occ. eigenvalues --   -0.79984  -0.78752  -0.77037  -0.76760  -0.73447
 Alpha  occ. eigenvalues --   -0.70264  -0.68467  -0.64587  -0.62632  -0.59631
 Alpha  occ. eigenvalues --   -0.58476  -0.56474  -0.55424  -0.54350  -0.53054
 Alpha  occ. eigenvalues --   -0.51980  -0.50628  -0.50469  -0.49868  -0.49023
 Alpha  occ. eigenvalues --   -0.47906  -0.47656  -0.47106  -0.46923  -0.46331
 Alpha  occ. eigenvalues --   -0.45907  -0.45547  -0.45078  -0.44541  -0.43955
 Alpha  occ. eigenvalues --   -0.43386  -0.43025  -0.42232  -0.41529  -0.40897
 Alpha  occ. eigenvalues --   -0.40348  -0.39580  -0.38692  -0.36905  -0.36660
 Alpha  occ. eigenvalues --   -0.35655  -0.34802  -0.33578  -0.31954
 Alpha virt. eigenvalues --    0.02245   0.04139   0.05030   0.07012   0.07400
 Alpha virt. eigenvalues --    0.08113   0.08821   0.09779   0.09967   0.10405
 Alpha virt. eigenvalues --    0.10648   0.11116   0.11515   0.12110   0.12204

 Mulliken charges:
               1
     1  C   -0.038869
     2  C   -0.132390
     3  C    0.256448
     4  C   -0.388245
     5  C    0.296989
     6  H    0.188015
     7  H    0.179939
     8  H    0.206188
     9  H    0.196300
    10  O   -0.238528
    11  O   -0.370713
    12  C   -0.247603
    13  C   -0.440931
    14  C   -0.504321
    15  O   -0.390486
    16  Si   0.492756
    17  C   -0.565146
    18  C   -0.595307
    19  C   -0.578819
    20  H    0.167355
    21  H    0.172067
    22  H    0.171323
    23  H    0.153075
    24  H    0.156509
    25  H    0.157485
    26  H    0.163363
    27  H    0.163863
    28  H    0.162725
    29  H    0.164957
    30  H    0.164265
    31  H    0.171360
    32  H    0.151429
    33  H    0.142481
    34  H    0.149083
    35  H    0.157545
    36  H    0.140152
    37  C   -0.448381
    38  C   -0.139896
    39  C   -0.333979
    40  H    0.216854
    41  H    0.187505
    42  H    0.181093
    43  H    0.154779
    44  H    0.147710
 Sum of Mulliken charges =   0.00000

 Dipole moment (field-independent basis, Debye):
    X=             -2.8315    Y=             -4.1217    Z=              2.3935  Tot=              5.5438
 Quadrupole moment (field-independent basis, Debye-Ang):
   XX=           -119.9112   YY=           -130.2257   ZZ=           -119.5696
   XY=            -13.8584   XZ=              6.2338   YZ=              5.7219

 1\1\GINC-CPU-E-31\SP\RM062X\def2TZVP\C14H26O3Si1\KE291\26-Jun-2019\0\\
 # m062x/def2tzvp int=ultrafine scrf=(solvent=chloroform)\\IP1_1ginp010
 \\0,1\C,0,2.301764,-0.601861,-0.109883\C,0,0.855635,-1.117194,-0.20628
 4\C,0,-0.208977,-0.003176,0.000238\C,0,0.113786,1.127069,-0.990749\C,0
 ,1.557795,1.581972,-1.046882\H,0,2.555063,-0.43654,0.942605\H,0,0.6898
 27,-1.457929,-1.237245\H,0,-0.127215,0.757753,-1.995226\H,0,-0.501032,
 2.013903,-0.822941\O,0,2.523885,0.692989,-0.754112\O,0,1.876505,2.6950
 74,-1.414136\C,0,3.326892,-1.549322,-0.73854\C,0,4.778025,-1.09189,-0.

 Normal termination of Gaussian 09 at Wed Jun 26 13:54:57 2019.
