 Gaussian 09, Revision D.01,
 Gaussian 09:  ES64L-G09RevD.01 24-Apr-2013

 --------------------------------------------------------
 # m062x/def2tzvp int=ultrafine scrf=(solvent=chloroform)
 --------------------------------------------------------

 ------------
 IP1_3ginp004
 ------------
 Symbolic Z-matrix:
 Charge =  0 Multiplicity = 1

                         Standard orientation:
 ---------------------------------------------------------------------
 Center     Atomic      Atomic             Coordinates (Angstroms)
 Number     Number       Type             X           Y           Z
 ---------------------------------------------------------------------
      1          6           0        2.443277    0.007076    0.030721
      2          6           0        1.130563    0.255321    0.786170
      3          6           0       -0.062517   -0.102815   -0.142973
      4          6           0        0.064678   -1.588958   -0.521998
      5          6           0        1.459300   -2.070657   -0.892150
      6          1           0        2.478759    0.664389   -0.845076
      7          1           0        1.075275    1.334530    0.966641
      8          1           0       -0.245581   -2.197831    0.334513
      9          1           0       -0.594638   -1.860444   -1.349500
     10          8           0        2.533115   -1.360193   -0.487533
     11          8           0        1.640034   -3.115891   -1.482165
     12          6           0        3.732116    0.219389    0.825201
     13          6           0        3.928137    1.665741    1.291150
     14          6           0        1.070117   -0.464524    2.143344
     15          8           0       -1.251789    0.118179    0.611482
     16         14           0       -2.908920   -0.009015    0.338908
     17          6           0       -3.585327    1.560087   -0.462626
     18          6           0       -3.369937   -1.498294   -0.726414
     19          6           0       -3.633983   -0.194344    2.064489
     20          1           0       -4.462336   -1.569090   -0.789655
     21          1           0       -2.991193   -1.418438   -1.750790
     22          1           0       -3.002699   -2.437737   -0.301320
     23          1           0       -3.351391    0.649772    2.702272
     24          1           0       -4.728345   -0.233421    2.027256
     25          1           0       -3.281278   -1.111599    2.547413
     26          1           0       -4.677779    1.498628   -0.533233
     27          1           0       -3.343078    2.447627    0.131685
     28          1           0       -3.199476    1.718234   -1.474673
     29          1           0        0.071703   -0.370773    2.572086
     30          1           0        1.309793   -1.529347    2.059635
     31          1           0        1.782437   -0.025014    2.846537
     32          1           0        4.562380   -0.072368    0.172619
     33          1           0        3.754518   -0.465418    1.679353
     34          1           0        4.905200    1.781663    1.768850
     35          1           0        3.884033    2.365467    0.449434
     36          1           0        3.168350    1.970852    2.017500
     37          6           0       -0.086865    0.763008   -1.434046
     38          6           0       -0.043134    2.248580   -1.202445
     39          6           0        0.787318    3.089945   -1.821335
     40          1           0       -1.011563    0.500216   -1.966201
     41          1           0        0.729208    0.468986   -2.103319
     42          1           0       -0.759089    2.641637   -0.482823
     43          1           0        0.763437    4.158497   -1.628716
     44          1           0        1.514895    2.743102   -2.551992
 ---------------------------------------------------------------------

 SCF Done:  E(RM062X) =  -1064.34204495     A.U. after   14 cycles

 The electronic state is 1-A.
 Alpha  occ. eigenvalues --  -67.01752 -19.67267 -19.62029 -19.61623 -10.68267
 Alpha  occ. eigenvalues --  -10.62139 -10.60819 -10.55679 -10.55262 -10.55071
 Alpha  occ. eigenvalues --  -10.55015 -10.54028 -10.53808 -10.53106 -10.52822
 Alpha  occ. eigenvalues --  -10.51303 -10.51053 -10.50853  -5.55200  -3.86387
 Alpha  occ. eigenvalues --   -3.86244  -3.86230  -1.22886  -1.14201  -1.13399
 Alpha  occ. eigenvalues --   -0.93687  -0.90571  -0.88378  -0.84485  -0.80905
 Alpha  occ. eigenvalues --   -0.80374  -0.78679  -0.77068  -0.76827  -0.73716
 Alpha  occ. eigenvalues --   -0.69928  -0.68403  -0.65037  -0.60703  -0.59179
 Alpha  occ. eigenvalues --   -0.58746  -0.57432  -0.57297  -0.54116  -0.53352
 Alpha  occ. eigenvalues --   -0.52354  -0.50653  -0.50374  -0.49752  -0.49097
 Alpha  occ. eigenvalues --   -0.48152  -0.47729  -0.47154  -0.46421  -0.46212
 Alpha  occ. eigenvalues --   -0.45831  -0.45229  -0.44637  -0.44470  -0.44005
 Alpha  occ. eigenvalues --   -0.43684  -0.43149  -0.42635  -0.42469  -0.41287
 Alpha  occ. eigenvalues --   -0.40562  -0.39478  -0.38352  -0.36793  -0.36584
 Alpha  occ. eigenvalues --   -0.35636  -0.34674  -0.33702  -0.32161
 Alpha virt. eigenvalues --    0.02873   0.03486   0.04968   0.06614   0.07396
 Alpha virt. eigenvalues --    0.07538   0.08622   0.09358   0.09773   0.10429
 Alpha virt. eigenvalues --    0.10955   0.11333   0.11659   0.12380   0.12633

 Mulliken charges:
               1
     1  C   -0.033834
     2  C   -0.145075
     3  C    0.246384
     4  C   -0.479039
     5  C    0.341817
     6  H    0.179412
     7  H    0.199113
     8  H    0.229018
     9  H    0.191718
    10  O   -0.232519
    11  O   -0.370476
    12  C   -0.293040
    13  C   -0.456097
    14  C   -0.501187
    15  O   -0.401238
    16  Si   0.481220
    17  C   -0.583367
    18  C   -0.588920
    19  C   -0.576611
    20  H    0.172282
    21  H    0.167357
    22  H    0.173666
    23  H    0.159528
    24  H    0.157255
    25  H    0.157815
    26  H    0.168190
    27  H    0.167174
    28  H    0.165210
    29  H    0.172341
    30  H    0.169464
    31  H    0.167038
    32  H    0.158338
    33  H    0.168713
    34  H    0.158728
    35  H    0.151869
    36  H    0.149949
    37  C   -0.400898
    38  C   -0.126468
    39  C   -0.340993
    40  H    0.194810
    41  H    0.199591
    42  H    0.184484
    43  H    0.150086
    44  H    0.147194
 Sum of Mulliken charges =   0.00000

 Dipole moment (field-independent basis, Debye):
    X=             -2.2890    Y=              4.5914    Z=              1.7306  Tot=              5.4143
 Quadrupole moment (field-independent basis, Debye-Ang):
   XX=           -115.7824   YY=           -134.2498   ZZ=           -121.9842
   XY=             13.9347   XZ=              5.9869   YZ=             -8.5247

 Normal termination of Gaussian 09 at Wed Jun 26 13:55:16 2019.
