 Gaussian 09, Revision D.01,
 Gaussian 09:  ES64L-G09RevD.01 24-Apr-2013

 --------------------------------------------------------
 # m062x/def2tzvp int=ultrafine scrf=(solvent=chloroform)
 --------------------------------------------------------

 ------------
 IP1_4ginp007
 ------------
 Symbolic Z-matrix:
 Charge =  0 Multiplicity = 1

                         Standard orientation:
 ---------------------------------------------------------------------
 Center     Atomic      Atomic             Coordinates (Angstroms)
 Number     Number       Type             X           Y           Z
 ---------------------------------------------------------------------
      1          6           0       -2.443338    0.346572    0.272099
      2          6           0       -1.074265    0.321428    0.967763
      3          6           0        0.041324    0.140935   -0.101173
      4          6           0       -0.216452   -1.200027   -0.811066
      5          6           0       -1.652798   -1.453763   -1.241170
      6          1           0       -2.493636    1.219172   -0.389633
      7          1           0       -0.936194    1.310283    1.419054
      8          1           0        0.411127   -1.321372   -1.697828
      9          1           0        0.037290   -2.019589   -0.129930
     10          8           0       -2.651794   -0.816078   -0.593431
     11          8           0       -1.936423   -2.269465   -2.093290
     12          6           0       -3.649148    0.398612    1.208963
     13          6           0       -4.975305    0.625820    0.476929
     14          6           0       -0.991125   -0.720416    2.096393
     15          8           0        1.284402    0.139828    0.587699
     16         14           0        2.835125   -0.444564    0.299988
     17          6           0        2.916935   -2.308508    0.591377
     18          6           0        3.455865   -0.065176   -1.442578
     19          6           0        3.892624    0.450530    1.571053
     20          1           0        4.484171   -0.430344   -1.550371
     21          1           0        2.856855   -0.551705   -2.219678
     22          1           0        3.465232    1.010537   -1.645172
     23          1           0        3.550359    0.241022    2.589819
     24          1           0        4.939804    0.136266    1.498426
     25          1           0        3.854430    1.534229    1.420734
     26          1           0        2.370574   -2.876138   -0.168914
     27          1           0        3.959710   -2.646288    0.564194
     28          1           0        2.508378   -2.577400    1.571442
     29          1           0       -1.626814   -0.429879    2.936388
     30          1           0       -1.314343   -1.713995    1.770280
     31          1           0        0.034191   -0.794739    2.461086
     32          1           0       -3.474938    1.209992    1.926710
     33          1           0       -3.695416   -0.530870    1.785747
     34          1           0       -5.807935    0.657095    1.185940
     35          1           0       -4.967402    1.574188   -0.071963
     36          1           0       -5.169530   -0.176397   -0.239768
     37          6           0        0.061550    1.282633   -1.161428
     38          6           0        0.225960    2.676810   -0.621412
     39          6           0        1.234845    3.493909   -0.927341
     40          1           0       -0.859766    1.230881   -1.757835
     41          1           0        0.879451    1.064976   -1.855314
     42          1           0       -0.555441    3.043886    0.043278
     43          1           0        1.294504    4.501462   -0.526396
     44          1           0        2.034084    3.188196   -1.598398
 ---------------------------------------------------------------------

 SCF Done:  E(RM062X) =  -1064.33963428     A.U. after   14 cycles

 The electronic state is 1-A.
 Alpha  occ. eigenvalues --  -67.01651 -19.67373 -19.61903 -19.61803 -10.68450
 Alpha  occ. eigenvalues --  -10.62174 -10.61048 -10.55911 -10.55496 -10.54933
 Alpha  occ. eigenvalues --  -10.54815 -10.54203 -10.53647 -10.52942 -10.52596
 Alpha  occ. eigenvalues --  -10.51239 -10.50995 -10.50752  -5.55097  -3.86284
 Alpha  occ. eigenvalues --   -3.86142  -3.86129  -1.23009  -1.14368  -1.13411
 Alpha  occ. eigenvalues --   -0.93632  -0.90600  -0.88428  -0.84743  -0.80936
 Alpha  occ. eigenvalues --   -0.80159  -0.78278  -0.76983  -0.76771  -0.73287
 Alpha  occ. eigenvalues --   -0.70516  -0.69045  -0.64722  -0.60972  -0.59664
 Alpha  occ. eigenvalues --   -0.59087  -0.57120  -0.55726  -0.54579  -0.53670
 Alpha  occ. eigenvalues --   -0.52392  -0.50717  -0.50225  -0.49538  -0.48695
 Alpha  occ. eigenvalues --   -0.47936  -0.47795  -0.47601  -0.47120  -0.46190
 Alpha  occ. eigenvalues --   -0.45748  -0.45418  -0.44767  -0.44506  -0.44170
 Alpha  occ. eigenvalues --   -0.44048  -0.42465  -0.42187  -0.41771  -0.41454
 Alpha  occ. eigenvalues --   -0.40625  -0.39472  -0.38464  -0.36628  -0.36565
 Alpha  occ. eigenvalues --   -0.35910  -0.34540  -0.33654  -0.32133
 Alpha virt. eigenvalues --    0.02760   0.03871   0.04978   0.06341   0.07666
 Alpha virt. eigenvalues --    0.08012   0.08944   0.09555   0.09792   0.10010
 Alpha virt. eigenvalues --    0.10386   0.11113   0.11679   0.12256   0.12427

 Mulliken charges:
               1
     1  C   -0.032758
     2  C   -0.140108
     3  C    0.267604
     4  C   -0.501284
     5  C    0.346571
     6  H    0.178102
     7  H    0.193652
     8  H    0.198673
     9  H    0.229893
    10  O   -0.240087
    11  O   -0.368314
    12  C   -0.289174
    13  C   -0.442694
    14  C   -0.525989
    15  O   -0.393934
    16  Si   0.484893
    17  C   -0.584899
    18  C   -0.586014
    19  C   -0.559074
    20  H    0.172565
    21  H    0.165073
    22  H    0.161333
    23  H    0.157659
    24  H    0.153161
    25  H    0.158531
    26  H    0.166231
    27  H    0.165791
    28  H    0.166160
    29  H    0.173959
    30  H    0.170758
    31  H    0.171118
    32  H    0.157479
    33  H    0.163428
    34  H    0.150668
    35  H    0.140630
    36  H    0.158575
    37  C   -0.398215
    38  C   -0.072830
    39  C   -0.345871
    40  H    0.196814
    41  H    0.185272
    42  H    0.156846
    43  H    0.147803
    44  H    0.142002
 Sum of Mulliken charges =   0.00000

 Dipole moment (field-independent basis, Debye):
    X=              2.2892    Y=              3.1584    Z=              2.9586  Tot=              4.8958
 Quadrupole moment (field-independent basis, Debye-Ang):
   XX=           -118.8526   YY=           -125.5755   ZZ=           -126.1125
   XY=            -11.8602   XZ=            -12.7715   YZ=             -8.0221

 Normal termination of Gaussian 09 at Wed Jun 26 13:47:23 2019.
