 Gaussian 09, Revision D.01,
 Gaussian 09:  ES64L-G09RevD.01 24-Apr-2013

 --------------------------------------------------------
 # m062x/def2tzvp int=ultrafine scrf=(solvent=chloroform)
 --------------------------------------------------------

 ------------
 IP1_2ginp002
 ------------
 Symbolic Z-matrix:
 Charge =  0 Multiplicity = 1

                         Standard orientation:
 ---------------------------------------------------------------------
 Center     Atomic      Atomic             Coordinates (Angstroms)
 Number     Number       Type             X           Y           Z
 ---------------------------------------------------------------------
      1          6           0       -2.416908   -0.252938   -0.576081
      2          6           0       -0.967206   -0.723754   -0.765246
      3          6           0        0.039320    0.409068   -0.417833
      4          6           0       -0.225231    0.813784    1.040158
      5          6           0       -1.675681    1.107726    1.374685
      6          1           0       -2.661909    0.450331   -1.381429
      7          1           0       -0.763731   -1.519938   -0.039033
      8          1           0        0.067101   -0.008122    1.704923
      9          1           0        0.358583    1.689440    1.328874
     10          8           0       -2.642413    0.492246    0.662828
     11          8           0       -1.999119    1.821387    2.301023
     12          6           0       -3.478912   -1.359787   -0.581400
     13          6           0       -3.308907   -2.436222    0.494610
     14          6           0       -0.774290   -1.308123   -2.172773
     15          8           0        1.367913   -0.074180   -0.594207
     16         14           0        2.506861   -0.901311    0.327368
     17          6           0        3.244425    0.212924    1.659873
     18          6           0        1.801803   -2.465348    1.118278
     19          6           0        3.831980   -1.362874   -0.924857
     20          1           0        2.608761   -3.021181    1.610521
     21          1           0        1.043312   -2.257788    1.880337
     22          1           0        1.354954   -3.127886    0.369430
     23          1           0        4.662224   -1.887002   -0.438506
     24          1           0        3.430560   -2.019680   -1.703621
     25          1           0        4.239812   -0.472754   -1.414995
     26          1           0        4.087575   -0.292054    2.145750
     27          1           0        3.621340    1.145667    1.227012
     28          1           0        2.523583    0.474581    2.440858
     29          1           0        0.286933   -1.478987   -2.364095
     30          1           0       -1.294771   -2.263896   -2.275465
     31          1           0       -1.156133   -0.638360   -2.950537
     32          1           0       -3.493321   -1.814443   -1.577856
     33          1           0       -4.449880   -0.868100   -0.455254
     34          1           0       -2.406429   -3.036261    0.341494
     35          1           0       -3.254709   -1.987769    1.490996
     36          1           0       -4.161974   -3.120994    0.482444
     37          6           0       -0.098393    1.636313   -1.360066
     38          6           0        0.897183    2.730785   -1.087699
     39          6           0        0.579614    3.987765   -0.773125
     40          1           0       -1.113133    2.044125   -1.292654
     41          1           0        0.039674    1.277013   -2.387016
     42          1           0        1.944492    2.447579   -1.172214
     43          1           0        1.342022    4.742131   -0.601455
     44          1           0       -0.454812    4.311168   -0.679959
 ---------------------------------------------------------------------

 SCF Done:  E(RM062X) =  -1064.34111013     A.U. after   14 cycles

 The electronic state is 1-A.
 Alpha  occ. eigenvalues --  -67.01747 -19.67317 -19.61999 -19.61680 -10.68307
 Alpha  occ. eigenvalues --  -10.62102 -10.61157 -10.55700 -10.55625 -10.54512
 Alpha  occ. eigenvalues --  -10.54468 -10.54246 -10.53369 -10.53318 -10.52842
 Alpha  occ. eigenvalues --  -10.51350 -10.51007 -10.50879  -5.55196  -3.86383
 Alpha  occ. eigenvalues --   -3.86240  -3.86225  -1.22966  -1.14261  -1.13425
 Alpha  occ. eigenvalues --   -0.93640  -0.90787  -0.87866  -0.84916  -0.81016
 Alpha  occ. eigenvalues --   -0.79616  -0.79081  -0.77105  -0.76835  -0.73679
 Alpha  occ. eigenvalues --   -0.69371  -0.69094  -0.64756  -0.62026  -0.60013
 Alpha  occ. eigenvalues --   -0.58248  -0.56328  -0.55704  -0.54695  -0.53978
 Alpha  occ. eigenvalues --   -0.51691  -0.50502  -0.49989  -0.49817  -0.49076
 Alpha  occ. eigenvalues --   -0.48415  -0.47673  -0.47407  -0.46737  -0.46489
 Alpha  occ. eigenvalues --   -0.45755  -0.45481  -0.44914  -0.44576  -0.44096
 Alpha  occ. eigenvalues --   -0.43430  -0.42857  -0.42549  -0.41590  -0.41249
 Alpha  occ. eigenvalues --   -0.40933  -0.39340  -0.38728  -0.37064  -0.36580
 Alpha  occ. eigenvalues --   -0.35982  -0.34291  -0.33487  -0.31955
 Alpha virt. eigenvalues --    0.03107   0.03785   0.04946   0.06687   0.06860
 Alpha virt. eigenvalues --    0.07386   0.09254   0.09606   0.09795   0.10023
 Alpha virt. eigenvalues --    0.11021   0.11164   0.11745   0.12198   0.12836

 Mulliken charges:
               1
     1  C    0.000845
     2  C   -0.228140
     3  C    0.284865
     4  C   -0.463521
     5  C    0.343708
     6  H    0.185276
     7  H    0.202800
     8  H    0.200216
     9  H    0.218261
    10  O   -0.240824
    11  O   -0.369095
    12  C   -0.279478
    13  C   -0.466162
    14  C   -0.497473
    15  O   -0.398952
    16  Si   0.455976
    17  C   -0.552638
    18  C   -0.582289
    19  C   -0.570365
    20  H    0.173989
    21  H    0.165712
    22  H    0.165540
    23  H    0.154508
    24  H    0.156105
    25  H    0.158588
    26  H    0.163536
    27  H    0.165163
    28  H    0.163788
    29  H    0.172454
    30  H    0.171762
    31  H    0.169257
    32  H    0.166159
    33  H    0.160288
    34  H    0.145103
    35  H    0.158701
    36  H    0.157686
    37  C   -0.380421
    38  C   -0.144182
    39  C   -0.316834
    40  H    0.192098
    41  H    0.187554
    42  H    0.159737
    43  H    0.146980
    44  H    0.143720
 Sum of Mulliken charges =   0.00000

 Dipole moment (field-independent basis, Debye):
    X=              2.0874    Y=             -3.7964    Z=             -3.4167  Tot=              5.5176
 Quadrupole moment (field-independent basis, Debye-Ang):
   XX=           -120.7759   YY=           -121.2961   ZZ=           -128.3071
   XY=              7.3881   XZ=             13.9765   YZ=             -6.9803

 1\1\GINC-CPU-E-68\SP\RM062X\def2TZVP\C14H26O3Si1\KE291\26-Jun-2019\0\\
 # m062x/def2tzvp int=ultrafine scrf=(solvent=chloroform)\\IP1_2ginp002
 \\0,1\C,0,2.416908,-0.252938,0.576081\C,0,0.967206,-0.723754,0.765246\
 C,0,-0.03932,0.409068,0.417833\C,0,0.225231,0.813784,-1.040158\C,0,1.6
 75681,1.107726,-1.374685\H,0,2.661909,0.450331,1.381429\H,0,0.763731,-
 1.519938,0.039033\H,0,-0.067101,-0.008122,-1.704923\H,0,-0.358583,1.68
 944,-1.328874\O,0,2.642413,0.492246,-0.662828\O,0,1.999119,1.821387,-2
 .301023\C,0,3.478912,-1.359787,0.5814\C,0,3.308907,-2.436222,-0.49461\

 Normal termination of Gaussian 09 at Wed Jun 26 13:54:32 2019.
