 Gaussian 09, Revision D.01,
 Gaussian 09:  ES64L-G09RevD.01 24-Apr-2013

 --------------------------------------------------------
 # m062x/def2tzvp int=ultrafine scrf=(solvent=chloroform)
 --------------------------------------------------------

 ------------
 IP1_1ginp002
 ------------
 Symbolic Z-matrix:
 Charge =  0 Multiplicity = 1

                         Standard orientation:
 ---------------------------------------------------------------------
 Center     Atomic      Atomic             Coordinates (Angstroms)
 Number     Number       Type             X           Y           Z
 ---------------------------------------------------------------------
      1          6           0       -2.416911   -0.252933   -0.576080
      2          6           0       -0.967211   -0.723753   -0.765246
      3          6           0        0.039320    0.409065   -0.417834
      4          6           0       -0.225230    0.813782    1.040157
      5          6           0       -1.675678    1.107729    1.374685
      6          1           0       -2.661910    0.450336   -1.381428
      7          1           0       -0.763737   -1.519939   -0.039033
      8          1           0        0.067100   -0.008124    1.704923
      9          1           0        0.358588    1.689437    1.328873
     10          8           0       -2.642413    0.492251    0.662829
     11          8           0       -1.999114    1.821390    2.301023
     12          6           0       -3.478918   -1.359779   -0.581399
     13          6           0       -3.308916   -2.436215    0.494611
     14          6           0       -0.774297   -1.308124   -2.172773
     15          8           0        1.367910   -0.074189   -0.594209
     16         14           0        2.506861   -0.901313    0.327368
     17          6           0        3.244426    0.212929    1.659867
     18          6           0        1.801806   -2.465347    1.118286
     19          6           0        3.831978   -1.362881   -0.924857
     20          1           0        1.043316   -2.257785    1.880345
     21          1           0        1.354957   -3.127889    0.369442
     22          1           0        2.608765   -3.021177    1.610531
     23          1           0        4.662223   -1.887008   -0.438505
     24          1           0        3.430557   -2.019690   -1.703618
     25          1           0        4.239809   -0.472762   -1.414999
     26          1           0        3.621338    1.145671    1.227001
     27          1           0        2.523587    0.474587    2.440853
     28          1           0        4.087579   -0.292045    2.145743
     29          1           0       -1.294781   -2.263896   -2.275464
     30          1           0       -1.156138   -0.638360   -2.950537
     31          1           0        0.286925   -1.478992   -2.364096
     32          1           0       -3.493329   -1.814435   -1.577854
     33          1           0       -4.449885   -0.868089   -0.455252
     34          1           0       -4.161986   -3.120984    0.482446
     35          1           0       -2.406440   -3.036256    0.341495
     36          1           0       -3.254716   -1.987762    1.490997
     37          6           0       -0.098391    1.636310   -1.360067
     38          6           0        0.897190    2.730778   -1.087702
     39          6           0        0.579626    3.987760   -0.773127
     40          1           0       -1.113129    2.044126   -1.292654
     41          1           0        0.039674    1.277010   -2.387017
     42          1           0        1.944497    2.447569   -1.172217
     43          1           0        1.342037    4.742123   -0.601458
     44          1           0       -0.454799    4.311167   -0.679960
 ---------------------------------------------------------------------

 SCF Done:  E(RM062X) =  -1064.34111013     A.U. after   14 cycles

 The electronic state is 1-A.
 Alpha  occ. eigenvalues --  -67.01747 -19.67317 -19.61999 -19.61680 -10.68307
 Alpha  occ. eigenvalues --  -10.62102 -10.61157 -10.55700 -10.55625 -10.54512
 Alpha  occ. eigenvalues --  -10.54468 -10.54246 -10.53369 -10.53318 -10.52842
 Alpha  occ. eigenvalues --  -10.51350 -10.51007 -10.50879  -5.55196  -3.86383
 Alpha  occ. eigenvalues --   -3.86240  -3.86225  -1.22966  -1.14261  -1.13425
 Alpha  occ. eigenvalues --   -0.93640  -0.90787  -0.87866  -0.84916  -0.81016
 Alpha  occ. eigenvalues --   -0.79616  -0.79081  -0.77105  -0.76835  -0.73679
 Alpha  occ. eigenvalues --   -0.69371  -0.69094  -0.64756  -0.62026  -0.60013
 Alpha  occ. eigenvalues --   -0.58248  -0.56328  -0.55704  -0.54695  -0.53978
 Alpha  occ. eigenvalues --   -0.51691  -0.50502  -0.49989  -0.49817  -0.49076
 Alpha  occ. eigenvalues --   -0.48415  -0.47673  -0.47407  -0.46737  -0.46489
 Alpha  occ. eigenvalues --   -0.45755  -0.45481  -0.44914  -0.44576  -0.44096
 Alpha  occ. eigenvalues --   -0.43430  -0.42857  -0.42549  -0.41590  -0.41249
 Alpha  occ. eigenvalues --   -0.40933  -0.39340  -0.38728  -0.37064  -0.36580
 Alpha  occ. eigenvalues --   -0.35982  -0.34291  -0.33487  -0.31955
 Alpha virt. eigenvalues --    0.03107   0.03785   0.04946   0.06687   0.06860
 Alpha virt. eigenvalues --    0.07386   0.09254   0.09606   0.09795   0.10023
 Alpha virt. eigenvalues --    0.11021   0.11164   0.11745   0.12198   0.12836

 Mulliken charges:
               1
     1  C    0.000845
     2  C   -0.228140
     3  C    0.284865
     4  C   -0.463521
     5  C    0.343708
     6  H    0.185276
     7  H    0.202800
     8  H    0.200217
     9  H    0.218261
    10  O   -0.240824
    11  O   -0.369094
    12  C   -0.279478
    13  C   -0.466162
    14  C   -0.497473
    15  O   -0.398952
    16  Si   0.455976
    17  C   -0.552639
    18  C   -0.582289
    19  C   -0.570365
    20  H    0.165712
    21  H    0.165540
    22  H    0.173989
    23  H    0.154508
    24  H    0.156105
    25  H    0.158588
    26  H    0.165163
    27  H    0.163788
    28  H    0.163536
    29  H    0.171762
    30  H    0.169257
    31  H    0.172454
    32  H    0.166159
    33  H    0.160288
    34  H    0.157686
    35  H    0.145103
    36  H    0.158701
    37  C   -0.380421
    38  C   -0.144183
    39  C   -0.316834
    40  H    0.192098
    41  H    0.187554
    42  H    0.159737
    43  H    0.146980
    44  H    0.143720
 Sum of Mulliken charges =   0.00000

 Dipole moment (field-independent basis, Debye):
    X=              2.0874    Y=             -3.7964    Z=             -3.4167  Tot=              5.5176
 Quadrupole moment (field-independent basis, Debye-Ang):
   XX=           -120.7759   YY=           -121.2961   ZZ=           -128.3071
   XY=              7.3881   XZ=             13.9764   YZ=             -6.9803

 Normal termination of Gaussian 09 at Wed Jun 26 14:09:40 2019.
