 Gaussian 09, Revision D.01,
 Gaussian 09:  ES64L-G09RevD.01 24-Apr-2013

 --------------------------------------------------------
 # m062x/def2tzvp int=ultrafine scrf=(solvent=chloroform)
 --------------------------------------------------------

 ------------
 IP1_1ginp004
 ------------
 Symbolic Z-matrix:
 Charge =  0 Multiplicity = 1

                         Standard orientation:
 ---------------------------------------------------------------------
 Center     Atomic      Atomic             Coordinates (Angstroms)
 Number     Number       Type             X           Y           Z
 ---------------------------------------------------------------------
      1          6           0        2.473658    0.310613    0.101338
      2          6           0        1.128531    0.296601    0.838034
      3          6           0       -0.039990    0.118997   -0.172302
      4          6           0        0.192908   -1.252929   -0.829196
      5          6           0        1.581546   -1.461170   -1.405867
      6          1           0        2.544608    1.236224   -0.482813
      7          1           0        1.088916   -0.603470    1.464845
      8          1           0        0.052906   -2.032459   -0.071151
      9          1           0       -0.519018   -1.453694   -1.633938
     10          8           0        2.612523   -0.772591   -0.876514
     11          8           0        1.805126   -2.262715   -2.289238
     12          6           0        3.720885    0.218467    0.988053
     13          6           0        3.789213   -1.010903    1.898908
     14          6           0        1.000989    1.507308    1.774177
     15          8           0       -1.244405    0.121486    0.588412
     16         14           0       -2.793446   -0.513420    0.394002
     17          6           0       -3.524341   -0.131960   -1.304307
     18          6           0       -2.809832   -2.378571    0.682989
     19          6           0       -3.790425    0.345947    1.737010
     20          1           0       -2.296428   -2.933193   -0.108685
     21          1           0       -2.337967   -2.636386    1.637232
     22          1           0       -3.844444   -2.739916    0.717417
     23          1           0       -3.808219    1.430427    1.587065
     24          1           0       -4.826989   -0.009119    1.739725
     25          1           0       -3.367942    0.151397    2.728280
     26          1           0       -3.530766    0.943025   -1.512378
     27          1           0       -2.986697   -0.631283   -2.117219
     28          1           0       -4.562834   -0.481992   -1.339979
     29          1           0        1.697952    1.419274    2.612295
     30          1           0        1.202248    2.449369    1.258895
     31          1           0       -0.010547    1.551070    2.181737
     32          1           0        3.784384    1.136846    1.581433
     33          1           0        4.587530    0.226365    0.317759
     34          1           0        3.684974   -1.933753    1.320518
     35          1           0        4.753438   -1.047271    2.414454
     36          1           0        3.008293   -0.999796    2.665739
     37          6           0       -0.130455    1.198580   -1.287139
     38          6           0       -0.439619    2.604162   -0.848940
     39          6           0        0.171108    3.695442   -1.314083
     40          1           0       -0.932218    0.865346   -1.959806
     41          1           0        0.784455    1.192170   -1.890755
     42          1           0       -1.250321    2.709847   -0.130453
     43          1           0       -0.121306    4.691290   -0.994188
     44          1           0        0.983223    3.634613   -2.035381
 ---------------------------------------------------------------------

 SCF Done:  E(RM062X) =  -1064.33976154     A.U. after   14 cycles

 The electronic state is 1-A.
 Alpha  occ. eigenvalues --  -67.01766 -19.67334 -19.62109 -19.61706 -10.68360
 Alpha  occ. eigenvalues --  -10.62153 -10.61024 -10.55869 -10.55405 -10.54823
 Alpha  occ. eigenvalues --  -10.54769 -10.54133 -10.53376 -10.52809 -10.52754
 Alpha  occ. eigenvalues --  -10.51284 -10.51078 -10.50899  -5.55216  -3.86403
 Alpha  occ. eigenvalues --   -3.86258  -3.86246  -1.22977  -1.14274  -1.13467
 Alpha  occ. eigenvalues --   -0.93597  -0.90606  -0.88218  -0.84790  -0.80812
 Alpha  occ. eigenvalues --   -0.79923  -0.78898  -0.77037  -0.76883  -0.73678
 Alpha  occ. eigenvalues --   -0.69243  -0.69104  -0.64917  -0.62115  -0.59530
 Alpha  occ. eigenvalues --   -0.58228  -0.56895  -0.55690  -0.54550  -0.53216
 Alpha  occ. eigenvalues --   -0.51770  -0.50768  -0.50213  -0.49691  -0.49003
 Alpha  occ. eigenvalues --   -0.48098  -0.47588  -0.47557  -0.46836  -0.46490
 Alpha  occ. eigenvalues --   -0.46045  -0.45508  -0.45138  -0.44595  -0.44099
 Alpha  occ. eigenvalues --   -0.43225  -0.42842  -0.42659  -0.41548  -0.41227
 Alpha  occ. eigenvalues --   -0.40769  -0.39424  -0.38471  -0.36790  -0.36592
 Alpha  occ. eigenvalues --   -0.35924  -0.34554  -0.33780  -0.31604
 Alpha virt. eigenvalues --    0.03253   0.03513   0.04870   0.06802   0.06916
 Alpha virt. eigenvalues --    0.07373   0.09152   0.09738   0.09926   0.10078
 Alpha virt. eigenvalues --    0.10748   0.10983   0.11772   0.12474   0.12654

 Mulliken charges:
               1
     1  C   -0.004353
     2  C   -0.203595
     3  C    0.236885
     4  C   -0.457390
     5  C    0.339704
     6  H    0.185056
     7  H    0.190169
     8  H    0.220138
     9  H    0.197728
    10  O   -0.238873
    11  O   -0.370393
    12  C   -0.289947
    13  C   -0.463128
    14  C   -0.493907
    15  O   -0.404427
    16  Si   0.499873
    17  C   -0.583883
    18  C   -0.586749
    19  C   -0.568604
    20  H    0.167182
    21  H    0.166755
    22  H    0.165122
    23  H    0.157253
    24  H    0.156185
    25  H    0.159610
    26  H    0.170304
    27  H    0.165978
    28  H    0.172236
    29  H    0.167645
    30  H    0.171680
    31  H    0.174813
    32  H    0.168816
    33  H    0.160044
    34  H    0.158913
    35  H    0.156156
    36  H    0.148256
    37  C   -0.377796
    38  C   -0.128342
    39  C   -0.333286
    40  H    0.185607
    41  H    0.196621
    42  H    0.174187
    43  H    0.148592
    44  H    0.143170
 Sum of Mulliken charges =   0.00000

 Dipole moment (field-independent basis, Debye):
    X=             -2.3438    Y=              2.8447    Z=              3.3585  Tot=              4.9865
 Quadrupole moment (field-independent basis, Debye-Ang):
   XX=           -117.2751   YY=           -125.6110   ZZ=           -128.2176
   XY=             11.2949   XZ=             10.3484   YZ=             -9.6199

 Normal termination of Gaussian 09 at Wed Jun 26 14:09:29 2019.
