 Gaussian 09, Revision D.01,
 Gaussian 09:  ES64L-G09RevD.01 24-Apr-2013

 --------------------------------------------------------
 # m062x/def2tzvp int=ultrafine scrf=(solvent=chloroform)
 --------------------------------------------------------

 ------------
 IP1_3ginp009
 ------------
 Symbolic Z-matrix:
 Charge =  0 Multiplicity = 1

                         Standard orientation:
 ---------------------------------------------------------------------
 Center     Atomic      Atomic             Coordinates (Angstroms)
 Number     Number       Type             X           Y           Z
 ---------------------------------------------------------------------
      1          6           0       -2.270076    0.471703   -0.508490
      2          6           0       -0.980353    1.190916   -0.966451
      3          6           0        0.257286    0.778432   -0.131918
      4          6           0       -0.075824    1.057927    1.340651
      5          6           0       -1.410637    0.529886    1.819683
      6          1           0       -3.112626    1.083097   -0.853848
      7          1           0       -1.144195    2.252478   -0.740132
      8          1           0        0.692227    0.661004    2.006051
      9          1           0       -0.098874    2.143466    1.499054
     10          8           0       -2.435053    0.471966    0.944652
     11          8           0       -1.618420    0.245000    2.981968
     12          6           0       -2.504585   -0.963563   -0.996435
     13          6           0       -3.892955   -1.494834   -0.624794
     14          6           0       -0.784662    1.062951   -2.483411
     15          8           0        0.463830   -0.621024   -0.324357
     16         14           0        1.695290   -1.721831    0.010007
     17          6           0        0.848348   -3.395284   -0.132848
     18          6           0        3.078975   -1.602310   -1.268419
     19          6           0        2.411869   -1.514157    1.744528
     20          1           0        3.636900   -0.663354   -1.199602
     21          1           0        3.792357   -2.421689   -1.120819
     22          1           0        2.685056   -1.686747   -2.286938
     23          1           0        1.635506   -1.583188    2.513645
     24          1           0        3.135633   -2.315813    1.934234
     25          1           0        2.939905   -0.564063    1.877776
     26          1           0        0.057765   -3.504460    0.616737
     27          1           0        0.395393   -3.528283   -1.120847
     28          1           0        1.567390   -4.208396    0.017382
     29          1           0       -0.055704    1.790708   -2.849432
     30          1           0       -0.431926    0.065602   -2.755808
     31          1           0       -1.723297    1.251556   -3.014532
     32          1           0       -1.723261   -1.609874   -0.591344
     33          1           0       -2.391847   -0.976161   -2.085703
     34          1           0       -4.028897   -2.514047   -0.999600
     35          1           0       -4.032049   -1.510596    0.459207
     36          1           0       -4.686613   -0.873200   -1.055825
     37          6           0        1.539540    1.558528   -0.541407
     38          6           0        1.428267    3.059838   -0.539628
     39          6           0        2.061772    3.868065    0.312843
     40          1           0        1.827036    1.211192   -1.540271
     41          1           0        2.341865    1.260124    0.143479
     42          1           0        0.792554    3.503726   -1.305219
     43          1           0        1.954262    4.947444    0.261647
     44          1           0        2.716730    3.478987    1.089087
 ---------------------------------------------------------------------

 SCF Done:  E(RM062X) =  -1064.34012040     A.U. after   14 cycles

 The electronic state is 1-A.
 Alpha  occ. eigenvalues --  -67.01680 -19.66711 -19.61984 -19.61283 -10.67812
 Alpha  occ. eigenvalues --  -10.62057 -10.60684 -10.55584 -10.55291 -10.55247
 Alpha  occ. eigenvalues --  -10.54955 -10.54045 -10.53425 -10.53196 -10.52110
 Alpha  occ. eigenvalues --  -10.51187 -10.51007 -10.50770  -5.55126  -3.86313
 Alpha  occ. eigenvalues --   -3.86170  -3.86156  -1.22473  -1.13856  -1.13236
 Alpha  occ. eigenvalues --   -0.93520  -0.90518  -0.87839  -0.84798  -0.80659
 Alpha  occ. eigenvalues --   -0.80058  -0.78721  -0.76984  -0.76741  -0.73149
 Alpha  occ. eigenvalues --   -0.70100  -0.68777  -0.64455  -0.62200  -0.59658
 Alpha  occ. eigenvalues --   -0.57563  -0.56005  -0.55181  -0.54170  -0.53492
 Alpha  occ. eigenvalues --   -0.51760  -0.50916  -0.50379  -0.49464  -0.48559
 Alpha  occ. eigenvalues --   -0.47873  -0.47463  -0.47349  -0.47048  -0.46527
 Alpha  occ. eigenvalues --   -0.46182  -0.45241  -0.44962  -0.44498  -0.43862
 Alpha  occ. eigenvalues --   -0.43686  -0.43370  -0.42543  -0.41227  -0.40666
 Alpha  occ. eigenvalues --   -0.40169  -0.39350  -0.38498  -0.36871  -0.35774
 Alpha  occ. eigenvalues --   -0.35120  -0.34605  -0.34012  -0.31923
 Alpha virt. eigenvalues --    0.02770   0.04279   0.04831   0.06341   0.07366
 Alpha virt. eigenvalues --    0.07544   0.08810   0.09592   0.09931   0.10470
 Alpha virt. eigenvalues --    0.10631   0.11218   0.11504   0.12429   0.12579

 Mulliken charges:
               1
     1  C   -0.034619
     2  C   -0.138478
     3  C    0.267800
     4  C   -0.410143
     5  C    0.361819
     6  H    0.181665
     7  H    0.189658
     8  H    0.189654
     9  H    0.209915
    10  O   -0.253676
    11  O   -0.383107
    12  C   -0.266848
    13  C   -0.440233
    14  C   -0.522178
    15  O   -0.404162
    16  Si   0.485483
    17  C   -0.599215
    18  C   -0.567136
    19  C   -0.593741
    20  H    0.162899
    21  H    0.164006
    22  H    0.164233
    23  H    0.176539
    24  H    0.171740
    25  H    0.165967
    26  H    0.166363
    27  H    0.162865
    28  H    0.162390
    29  H    0.163280
    30  H    0.180405
    31  H    0.174415
    32  H    0.152440
    33  H    0.151684
    34  H    0.147734
    35  H    0.156992
    36  H    0.139104
    37  C   -0.446789
    38  C   -0.144674
    39  C   -0.317047
    40  H    0.225387
    41  H    0.188011
    42  H    0.162429
    43  H    0.151151
    44  H    0.146020
 Sum of Mulliken charges =   0.00000

 Dipole moment (field-independent basis, Debye):
    X=              3.3300    Y=              1.3771    Z=             -5.0720  Tot=              6.2218
 Quadrupole moment (field-independent basis, Debye-Ang):
   XX=           -122.3372   YY=           -111.8274   ZZ=           -133.1083
   XY=             -2.0275   XZ=             14.6237   YZ=             -1.0345

 Normal termination of Gaussian 09 at Wed Jun 26 13:56:51 2019.
