 Gaussian 09, Revision D.01,
 Gaussian 09:  ES64L-G09RevD.01 24-Apr-2013

 --------------------------------------------------------
 # m062x/def2tzvp int=ultrafine scrf=(solvent=chloroform)
 --------------------------------------------------------

 ------------
 IP1_2ginp011
 ------------
 Symbolic Z-matrix:
 Charge =  0 Multiplicity = 1

                         Standard orientation:
 ---------------------------------------------------------------------
 Center     Atomic      Atomic             Coordinates (Angstroms)
 Number     Number       Type             X           Y           Z
 ---------------------------------------------------------------------
      1          6           0        2.466609    0.389133    0.070259
      2          6           0        1.134387    0.325612    0.825774
      3          6           0       -0.027469   -0.009618   -0.152890
      4          6           0        0.302328   -1.404578   -0.715548
      5          6           0        1.706941   -1.567333   -1.268155
      6          1           0        2.455579    1.265243   -0.589562
      7          1           0        1.168054   -0.531010    1.510789
      8          1           0        0.196623   -2.136814    0.093892
      9          1           0       -0.384955   -1.704914   -1.508616
     10          8           0        2.685496   -0.759199   -0.812758
     11          8           0        1.991106   -2.431663   -2.071566
     12          6           0        3.723701    0.472692    0.944050
     13          6           0        3.901699   -0.671680    1.946289
     14          6           0        0.924226    1.582510    1.682778
     15          8           0       -1.208606   -0.073557    0.640298
     16         14           0       -2.831104   -0.464920    0.413812
     17          6           0       -3.431593   -0.891094    2.144639
     18          6           0       -3.798854    1.012245   -0.250974
     19          6           0       -3.091850   -1.935902   -0.740355
     20          1           0       -3.692554    1.886968    0.399372
     21          1           0       -3.482062    1.301668   -1.258007
     22          1           0       -4.865911    0.764980   -0.300120
     23          1           0       -2.547793   -2.825319   -0.407214
     24          1           0       -4.158627   -2.189265   -0.758367
     25          1           0       -2.793856   -1.721303   -1.772017
     26          1           0       -4.504992   -1.111148    2.142073
     27          1           0       -2.909670   -1.768975    2.539452
     28          1           0       -3.262430   -0.060642    2.838005
     29          1           0       -0.091862    1.588760    2.081374
     30          1           0        1.615978    1.590805    2.529985
     31          1           0        1.074496    2.501479    1.111605
     32          1           0        3.713506    1.436946    1.463313
     33          1           0        4.582046    0.500096    0.263615
     34          1           0        4.866842   -0.583773    2.453844
     35          1           0        3.124907   -0.669591    2.717381
     36          1           0        3.877028   -1.642028    1.441520
     37          6           0       -0.209882    0.973049   -1.341945
     38          6           0       -0.509660    2.410814   -1.014411
     39          6           0        0.066276    3.455707   -1.611992
     40          1           0       -1.041118    0.568272   -1.937785
     41          1           0        0.667931    0.925107   -1.997108
     42          1           0       -1.278600    2.583572   -0.264751
     43          1           0       -0.213313    4.476314   -1.367804
     44          1           0        0.835082    3.329459   -2.371166
 ---------------------------------------------------------------------

 SCF Done:  E(RM062X) =  -1064.33950044     A.U. after   14 cycles

 The electronic state is 1-A.
 Alpha  occ. eigenvalues --  -67.01777 -19.67271 -19.62117 -19.61601 -10.68241
 Alpha  occ. eigenvalues --  -10.62186 -10.60970 -10.55627 -10.55374 -10.55098
 Alpha  occ. eigenvalues --  -10.54927 -10.54104 -10.53536 -10.52828 -10.52721
 Alpha  occ. eigenvalues --  -10.51278 -10.51058 -10.50842  -5.55220  -3.86408
 Alpha  occ. eigenvalues --   -3.86264  -3.86250  -1.22908  -1.14188  -1.13450
 Alpha  occ. eigenvalues --   -0.93614  -0.90619  -0.88263  -0.84724  -0.80780
 Alpha  occ. eigenvalues --   -0.79971  -0.78907  -0.77047  -0.76835  -0.73714
 Alpha  occ. eigenvalues --   -0.69197  -0.69179  -0.65066  -0.62042  -0.59302
 Alpha  occ. eigenvalues --   -0.58213  -0.56993  -0.55655  -0.54588  -0.53130
 Alpha  occ. eigenvalues --   -0.51808  -0.50867  -0.50310  -0.49687  -0.49081
 Alpha  occ. eigenvalues --   -0.48105  -0.47549  -0.47467  -0.46742  -0.46142
 Alpha  occ. eigenvalues --   -0.45994  -0.45757  -0.45116  -0.44654  -0.44198
 Alpha  occ. eigenvalues --   -0.43258  -0.42808  -0.42573  -0.41523  -0.41226
 Alpha  occ. eigenvalues --   -0.40736  -0.39424  -0.38581  -0.36763  -0.36548
 Alpha  occ. eigenvalues --   -0.35756  -0.34606  -0.33679  -0.31762
 Alpha virt. eigenvalues --    0.03088   0.03437   0.05047   0.06844   0.06976
 Alpha virt. eigenvalues --    0.07359   0.09099   0.09808   0.10037   0.10234
 Alpha virt. eigenvalues --    0.10449   0.11120   0.11621   0.12301   0.12794

 Mulliken charges:
               1
     1  C   -0.000856
     2  C   -0.202183
     3  C    0.231400
     4  C   -0.411881
     5  C    0.339386
     6  H    0.185019
     7  H    0.194142
     8  H    0.212894
     9  H    0.187225
    10  O   -0.240132
    11  O   -0.371470
    12  C   -0.288591
    13  C   -0.463391
    14  C   -0.500787
    15  O   -0.393827
    16  Si   0.488902
    17  C   -0.564481
    18  C   -0.592011
    19  C   -0.594207
    20  H    0.166917
    21  H    0.167331
    22  H    0.168973
    23  H    0.173696
    24  H    0.172014
    25  H    0.167545
    26  H    0.154790
    27  H    0.156679
    28  H    0.157601
    29  H    0.174396
    30  H    0.168061
    31  H    0.173342
    32  H    0.168521
    33  H    0.159726
    34  H    0.155880
    35  H    0.148497
    36  H    0.158973
    37  C   -0.406638
    38  C   -0.144457
    39  C   -0.334173
    40  H    0.194242
    41  H    0.200530
    42  H    0.189248
    43  H    0.149338
    44  H    0.143820
 Sum of Mulliken charges =   0.00000

 Dipole moment (field-independent basis, Debye):
    X=             -2.6808    Y=              3.4040    Z=              2.9304  Tot=              5.2308
 Quadrupole moment (field-independent basis, Debye-Ang):
   XX=           -119.0319   YY=           -126.1921   ZZ=           -126.5658
   XY=             12.3829   XZ=             10.1730   YZ=             -9.0903

 1\1\GINC-CPU-E-98\SP\RM062X\def2TZVP\C14H26O3Si1\KE291\26-Jun-2019\0\\
 # m062x/def2tzvp int=ultrafine scrf=(solvent=chloroform)\\IP1_2ginp011
 \\0,1\C,0,2.466609,0.389133,0.070259\C,0,1.134387,0.325612,0.825774\C,
 0,-0.027469,-0.009618,-0.15289\C,0,0.302328,-1.404578,-0.715548\C,0,1.
 706941,-1.567333,-1.268155\H,0,2.455579,1.265243,-0.589562\H,0,1.16805
 4,-0.53101,1.510789\H,0,0.196623,-2.136814,0.093892\H,0,-0.384955,-1.7
 04914,-1.508616\O,0,2.685496,-0.759199,-0.812758\O,0,1.991106,-2.43166
 3,-2.071566\C,0,3.723701,0.472692,0.94405\C,0,3.901699,-0.67168,1.9462

 Normal termination of Gaussian 09 at Wed Jun 26 13:54:27 2019.
