 Gaussian 09, Revision D.01,
 Gaussian 09:  ES64L-G09RevD.01 24-Apr-2013

 --------------------------------------------------------
 # m062x/def2tzvp int=ultrafine scrf=(solvent=chloroform)
 --------------------------------------------------------

 ------------
 IP1_2ginp014
 ------------
 Symbolic Z-matrix:
 Charge =  0 Multiplicity = 1

                         Standard orientation:
 ---------------------------------------------------------------------
 Center     Atomic      Atomic             Coordinates (Angstroms)
 Number     Number       Type             X           Y           Z
 ---------------------------------------------------------------------
      1          6           0       -2.307280    0.317971   -0.170330
      2          6           0       -0.972818   -0.051215   -0.841834
      3          6           0        0.180261    0.823128   -0.251662
      4          6           0       -0.124499    1.157304    1.241845
      5          6           0       -1.126960    0.273770    1.946268
      6          1           0       -2.468149    1.403391   -0.229202
      7          1           0       -0.764842   -1.079699   -0.522100
      8          1           0        0.798370    1.165096    1.820792
      9          1           0       -0.535861    2.173155    1.300635
     10          8           0       -2.235519   -0.047242    1.241086
     11          8           0       -1.025131   -0.101711    3.095476
     12          6           0       -3.561139   -0.378595   -0.705480
     13          6           0       -3.541690   -1.908894   -0.628687
     14          6           0       -1.037977   -0.040781   -2.374620
     15          8           0        1.433099    0.153285   -0.362321
     16         14           0        2.056303   -1.377371   -0.040854
     17          6           0        1.305974   -2.174083    1.495617
     18          6           0        1.807524   -2.511607   -1.528900
     19          6           0        3.894877   -1.069956    0.212727
     20          1           0        2.211747   -2.059358   -2.440884
     21          1           0        2.331185   -3.461658   -1.369956
     22          1           0        0.752920   -2.744976   -1.708722
     23          1           0        4.333782   -0.571235   -0.657799
     24          1           0        4.074690   -0.436860    1.087868
     25          1           0        4.432034   -2.012878    0.364159
     26          1           0        1.868306   -3.084608    1.735136
     27          1           0        1.347488   -1.517278    2.369548
     28          1           0        0.261012   -2.467934    1.353560
     29          1           0       -0.045495   -0.213708   -2.798738
     30          1           0       -1.694806   -0.832912   -2.741702
     31          1           0       -1.413077    0.909115   -2.767372
     32          1           0       -3.720425   -0.047160   -1.737210
     33          1           0       -4.410519    0.002412   -0.127235
     34          1           0       -3.384506   -2.245267    0.399498
     35          1           0       -4.496121   -2.316322   -0.974925
     36          1           0       -2.753967   -2.345370   -1.251006
     37          6           0        0.361301    2.152383   -1.034030
     38          6           0        1.387973    3.076544   -0.439337
     39          6           0        1.157681    4.341974   -0.085297
     40          1           0       -0.602701    2.670104   -1.105778
     41          1           0        0.669487    1.889643   -2.051843
     42          1           0        2.383212    2.654823   -0.310958
     43          1           0        1.941713    4.971133    0.325993
     44          1           0        0.177316    4.799232   -0.201413
 ---------------------------------------------------------------------

 SCF Done:  E(RM062X) =  -1064.34063823     A.U. after   14 cycles

 The electronic state is 1-A.
 Alpha  occ. eigenvalues --  -67.01539 -19.67236 -19.61798 -19.61684 -10.67933
 Alpha  occ. eigenvalues --  -10.62438 -10.61185 -10.55953 -10.55536 -10.54579
 Alpha  occ. eigenvalues --  -10.54448 -10.54394 -10.53696 -10.53430 -10.52808
 Alpha  occ. eigenvalues --  -10.50941 -10.50884 -10.50688  -5.54991  -3.86180
 Alpha  occ. eigenvalues --   -3.86032  -3.86020  -1.23013  -1.14323  -1.13219
 Alpha  occ. eigenvalues --   -0.93568  -0.90726  -0.87714  -0.84847  -0.80857
 Alpha  occ. eigenvalues --   -0.79476  -0.79305  -0.76788  -0.76691  -0.73961
 Alpha  occ. eigenvalues --   -0.69169  -0.68888  -0.64675  -0.62347  -0.60335
 Alpha  occ. eigenvalues --   -0.58600  -0.56858  -0.55120  -0.54635  -0.52202
 Alpha  occ. eigenvalues --   -0.51432  -0.50976  -0.50344  -0.49694  -0.48988
 Alpha  occ. eigenvalues --   -0.48143  -0.47783  -0.47234  -0.47133  -0.45996
 Alpha  occ. eigenvalues --   -0.45856  -0.45418  -0.45028  -0.44340  -0.43981
 Alpha  occ. eigenvalues --   -0.43414  -0.43170  -0.42727  -0.41444  -0.41290
 Alpha  occ. eigenvalues --   -0.40999  -0.40074  -0.38632  -0.37148  -0.36380
 Alpha  occ. eigenvalues --   -0.35498  -0.34143  -0.33326  -0.31991
 Alpha virt. eigenvalues --    0.03609   0.03755   0.04677   0.06093   0.06738
 Alpha virt. eigenvalues --    0.07459   0.09196   0.09888   0.10052   0.10483
 Alpha virt. eigenvalues --    0.10540   0.11156   0.11723   0.12034   0.12992

 Mulliken charges:
               1
     1  C    0.052181
     2  C   -0.271897
     3  C    0.244346
     4  C   -0.424731
     5  C    0.321712
     6  H    0.178001
     7  H    0.204752
     8  H    0.206199
     9  H    0.214665
    10  O   -0.236573
    11  O   -0.365217
    12  C   -0.303481
    13  C   -0.461600
    14  C   -0.518387
    15  O   -0.384036
    16  Si   0.473874
    17  C   -0.584954
    18  C   -0.572390
    19  C   -0.579610
    20  H    0.164689
    21  H    0.165860
    22  H    0.160353
    23  H    0.157573
    24  H    0.157637
    25  H    0.154799
    26  H    0.171847
    27  H    0.175215
    28  H    0.171032
    29  H    0.183672
    30  H    0.174243
    31  H    0.186283
    32  H    0.170517
    33  H    0.160604
    34  H    0.164182
    35  H    0.157198
    36  H    0.143813
    37  C   -0.373921
    38  C   -0.128580
    39  C   -0.322603
    40  H    0.181555
    41  H    0.181116
    42  H    0.161797
    43  H    0.147259
    44  H    0.141004
 Sum of Mulliken charges =   0.00000

 Dipole moment (field-independent basis, Debye):
    X=             -0.2790    Y=              0.8926    Z=             -5.2176  Tot=              5.3008
 Quadrupole moment (field-independent basis, Debye-Ang):
   XX=           -116.0254   YY=           -114.3073   ZZ=           -136.0468
   XY=             -5.0143   XZ=             10.7342   YZ=              3.5175

 1\1\GINC-CPU-E-98\SP\RM062X\def2TZVP\C14H26O3Si1\KE291\26-Jun-2019\0\\
 # m062x/def2tzvp int=ultrafine scrf=(solvent=chloroform)\\IP1_2ginp014
 \\0,1\C,0,-2.30728,0.317971,-0.17033\C,0,-0.972818,-0.051215,-0.841834
 \C,0,0.180261,0.823128,-0.251662\C,0,-0.124499,1.157304,1.241845\C,0,-
 1.12696,0.27377,1.946268\H,0,-2.468149,1.403391,-0.229202\H,0,-0.76484
 2,-1.079699,-0.5221\H,0,0.79837,1.165096,1.820792\H,0,-0.535861,2.1731
 55,1.300635\O,0,-2.235519,-0.047242,1.241086\O,0,-1.025131,-0.101711,3
 .095476\C,0,-3.561139,-0.378594,-0.70548\C,0,-3.54169,-1.908893,-0.628

 Normal termination of Gaussian 09 at Wed Jun 26 13:54:27 2019.
