 Gaussian 09, Revision D.01,
 Gaussian 09:  ES64L-G09RevD.01 24-Apr-2013

 --------------------------------------------------------
 # m062x/def2tzvp int=ultrafine scrf=(solvent=chloroform)
 --------------------------------------------------------

 ------------
 IP1_2ginp007
 ------------
 Symbolic Z-matrix:
 Charge =  0 Multiplicity = 1

                         Standard orientation:
 ---------------------------------------------------------------------
 Center     Atomic      Atomic             Coordinates (Angstroms)
 Number     Number       Type             X           Y           Z
 ---------------------------------------------------------------------
      1          6           0        2.402149    0.200303    0.328888
      2          6           0        1.012579    0.323200    0.967920
      3          6           0       -0.093758   -0.069507   -0.053699
      4          6           0        0.171602   -1.545957   -0.398252
      5          6           0        1.595865   -1.864768   -0.813347
      6          1           0        2.527848    0.997633   -0.415196
      7          1           0        0.941282   -0.433930    1.761359
      8          1           0       -0.042369   -2.154273    0.488586
      9          1           0       -0.477306   -1.909090   -1.197702
     10          8           0        2.590556   -1.049639   -0.410321
     11          8           0        1.877328   -2.849995   -1.464078
     12          6           0        3.560740    0.266301    1.326540
     13          6           0        4.942834    0.178489    0.671892
     14          6           0        0.819776    1.695168    1.632356
     15          8           0       -1.334370    0.055692    0.633745
     16         14           0       -2.956014   -0.296547    0.347487
     17          6           0       -3.729048   -0.215017    2.060519
     18          6           0       -3.761220    0.991043   -0.773013
     19          6           0       -3.222128   -2.011012   -0.396572
     20          1           0       -3.645712    2.003087   -0.371190
     21          1           0       -3.352958    0.983692   -1.788629
     22          1           0       -4.835965    0.787777   -0.850500
     23          1           0       -2.861111   -2.085222   -1.427369
     24          1           0       -2.734408   -2.794463    0.191982
     25          1           0       -4.296449   -2.230286   -0.412558
     26          1           0       -3.298132   -0.970055    2.726193
     27          1           0       -3.570684    0.766236    2.519909
     28          1           0       -4.809491   -0.389924    2.008633
     29          1           0        1.427304    1.774324    2.537527
     30          1           0        1.090181    2.517284    0.965715
     31          1           0       -0.225478    1.817630    1.921269
     32          1           0        3.435261   -0.542483    2.057577
     33          1           0        3.480227    1.208120    1.878416
     34          1           0        5.730488    0.242172    1.428644
     35          1           0        5.064886   -0.762549    0.130558
     36          1           0        5.095837    0.998637   -0.038612
     37          6           0       -0.104822    0.751106   -1.372990
     38          6           0       -0.343957    2.232607   -1.266568
     39          6           0        0.352975    3.158831   -1.927490
     40          1           0       -0.901548    0.312006   -1.990593
     41          1           0        0.825466    0.570855   -1.924089
     42          1           0       -1.171406    2.540965   -0.631407
     43          1           0        0.114876    4.215379   -1.847062
     44          1           0        1.183929    2.894954   -2.578145
 ---------------------------------------------------------------------

 SCF Done:  E(RM062X) =  -1064.33880285     A.U. after   14 cycles

 The electronic state is 1-A.
 Alpha  occ. eigenvalues --  -67.01773 -19.67248 -19.62135 -19.61571 -10.68255
 Alpha  occ. eigenvalues --  -10.62177 -10.60998 -10.55627 -10.55454 -10.55038
 Alpha  occ. eigenvalues --  -10.54899 -10.54073 -10.53510 -10.52774 -10.52456
 Alpha  occ. eigenvalues --  -10.51221 -10.51077 -10.50827  -5.55213  -3.86401
 Alpha  occ. eigenvalues --   -3.86256  -3.86245  -1.22923  -1.14183  -1.13460
 Alpha  occ. eigenvalues --   -0.93567  -0.90630  -0.88296  -0.84900  -0.80782
 Alpha  occ. eigenvalues --   -0.79785  -0.78601  -0.77017  -0.76823  -0.73335
 Alpha  occ. eigenvalues --   -0.70239  -0.68414  -0.65085  -0.62543  -0.59321
 Alpha  occ. eigenvalues --   -0.58207  -0.56521  -0.55500  -0.54513  -0.53046
 Alpha  occ. eigenvalues --   -0.52130  -0.50770  -0.50371  -0.49628  -0.49002
 Alpha  occ. eigenvalues --   -0.47905  -0.47660  -0.47030  -0.46830  -0.46413
 Alpha  occ. eigenvalues --   -0.46009  -0.45482  -0.44974  -0.44686  -0.44109
 Alpha  occ. eigenvalues --   -0.43604  -0.43152  -0.42056  -0.41598  -0.40921
 Alpha  occ. eigenvalues --   -0.40384  -0.39643  -0.38552  -0.36888  -0.36453
 Alpha  occ. eigenvalues --   -0.35761  -0.34540  -0.33732  -0.31730
 Alpha virt. eigenvalues --    0.03077   0.03584   0.05009   0.06887   0.07182
 Alpha virt. eigenvalues --    0.07641   0.09093   0.09375   0.09921   0.10491
 Alpha virt. eigenvalues --    0.10572   0.11062   0.11635   0.12250   0.12707

 Mulliken charges:
               1
     1  C   -0.034944
     2  C   -0.147245
     3  C    0.239042
     4  C   -0.417019
     5  C    0.343268
     6  H    0.183555
     7  H    0.179399
     8  H    0.214044
     9  H    0.185710
    10  O   -0.244778
    11  O   -0.373901
    12  C   -0.260260
    13  C   -0.442192
    14  C   -0.506085
    15  O   -0.393233
    16  Si   0.482628
    17  C   -0.563534
    18  C   -0.588445
    19  C   -0.587601
    20  H    0.166174
    21  H    0.165683
    22  H    0.169625
    23  H    0.166712
    24  H    0.170952
    25  H    0.170866
    26  H    0.157272
    27  H    0.157396
    28  H    0.155130
    29  H    0.167048
    30  H    0.170651
    31  H    0.174035
    32  H    0.151193
    33  H    0.151218
    34  H    0.149602
    35  H    0.157924
    36  H    0.140831
    37  C   -0.411982
    38  C   -0.130333
    39  C   -0.335903
    40  H    0.194298
    41  H    0.199072
    42  H    0.180675
    43  H    0.149419
    44  H    0.144034
 Sum of Mulliken charges =   0.00000

 Dipole moment (field-independent basis, Debye):
    X=             -2.6660    Y=              3.8409    Z=              2.2671  Tot=              5.1961
 Quadrupole moment (field-independent basis, Debye-Ang):
   XX=           -118.8164   YY=           -130.4858   ZZ=           -122.4414
   XY=             13.4294   XZ=              7.8685   YZ=             -8.1078

 1\1\GINC-CPU-E-98\SP\RM062X\def2TZVP\C14H26O3Si1\KE291\26-Jun-2019\0\\
 # m062x/def2tzvp int=ultrafine scrf=(solvent=chloroform)\\IP1_2ginp007
 \\0,1\C,0,2.402149,0.200303,0.328888\C,0,1.012579,0.3232,0.96792\C,0,-
 0.093758,-0.069507,-0.053699\C,0,0.171602,-1.545957,-0.398252\C,0,1.59
 5865,-1.864768,-0.813347\H,0,2.527848,0.997633,-0.415196\H,0,0.941282,
 -0.43393,1.761359\H,0,-0.042369,-2.154273,0.488586\H,0,-0.477306,-1.90
 909,-1.197702\O,0,2.590556,-1.049639,-0.410321\O,0,1.877328,-2.849995,
 -1.464078\C,0,3.56074,0.266301,1.32654\C,0,4.942834,0.178489,0.671892\

 Normal termination of Gaussian 09 at Wed Jun 26 13:53:08 2019.
