 Gaussian 09, Revision D.01,
 Gaussian 09:  ES64L-G09RevD.01 24-Apr-2013

 --------------------------------------------------------
 # m062x/def2tzvp int=ultrafine scrf=(solvent=chloroform)
 --------------------------------------------------------

 ------------
 IP1_1ginp007
 ------------
 Symbolic Z-matrix:
 Charge =  0 Multiplicity = 1

                         Standard orientation:
 ---------------------------------------------------------------------
 Center     Atomic      Atomic             Coordinates (Angstroms)
 Number     Number       Type             X           Y           Z
 ---------------------------------------------------------------------
      1          6           0       -2.401382    0.141586   -0.350229
      2          6           0       -1.005188    0.323085   -0.963265
      3          6           0        0.101476    0.039970    0.092657
      4          6           0       -0.091038   -1.429596    0.503339
      5          6           0       -1.494104   -1.778461    0.961937
      6          1           0       -2.608591    0.982648    0.324117
      7          1           0       -0.869765   -0.455821   -1.726850
      8          1           0        0.124280   -2.068795   -0.360946
      9          1           0        0.588235   -1.729002    1.305446
     10          8           0       -2.526224   -1.054107    0.487078
     11          8           0       -1.725679   -2.709838    1.704652
     12          6           0       -3.527256    0.041342   -1.382199
     13          6           0       -4.923558   -0.074510   -0.763204
     14          6           0       -0.879731    1.681423   -1.669750
     15          8           0        1.350874    0.226978   -0.564145
     16         14           0        2.920401   -0.352249   -0.365523
     17          6           0        3.934522    0.741181   -1.511195
     18          6           0        3.535471   -0.184530    1.411600
     19          6           0        3.064130   -2.152706   -0.914619
     20          1           0        3.465259    0.847450    1.770961
     21          1           0        2.987400   -0.824704    2.110982
     22          1           0        4.590082   -0.480719    1.460224
     23          1           0        2.561252   -2.844493   -0.231731
     24          1           0        2.642131   -2.298034   -1.914841
     25          1           0        4.120395   -2.443820   -0.956195
     26          1           0        3.576485    0.668153   -2.543409
     27          1           0        3.879883    1.792699   -1.210913
     28          1           0        4.989077    0.444007   -1.501157
     29          1           0       -1.488935    1.706303   -2.577060
     30          1           0       -1.188667    2.508061   -1.025739
     31          1           0        0.158993    1.846133   -1.961305
     32          1           0       -3.325789   -0.822046   -2.028810
     33          1           0       -3.484982    0.930789   -2.018936
     34          1           0       -5.686947   -0.127166   -1.545250
     35          1           0       -5.008499   -0.969885   -0.142945
     36          1           0       -5.149382    0.794133   -0.134462
     37          6           0        0.048861    0.926093    1.368845
     38          6           0        0.316103    2.395794    1.190327
     39          6           0       -0.387534    3.369928    1.770127
     40          1           0        0.814663    0.519685    2.043765
     41          1           0       -0.908723    0.783885    1.883160
     42          1           0        1.175027    2.650365    0.572324
     43          1           0       -0.124737    4.415891    1.641861
     44          1           0       -1.250143    3.157910    2.398135
 ---------------------------------------------------------------------

 SCF Done:  E(RM062X) =  -1064.33929136     A.U. after   14 cycles

 The electronic state is 1-A.
 Alpha  occ. eigenvalues --  -67.01769 -19.67306 -19.62115 -19.61685 -10.68366
 Alpha  occ. eigenvalues --  -10.62154 -10.61058 -10.55849 -10.55487 -10.54819
 Alpha  occ. eigenvalues --  -10.54758 -10.54111 -10.53356 -10.52757 -10.52483
 Alpha  occ. eigenvalues --  -10.51274 -10.51083 -10.50889  -5.55218  -3.86405
 Alpha  occ. eigenvalues --   -3.86260  -3.86248  -1.22993  -1.14273  -1.13498
 Alpha  occ. eigenvalues --   -0.93550  -0.90643  -0.88255  -0.84971  -0.80817
 Alpha  occ. eigenvalues --   -0.79715  -0.78620  -0.77029  -0.76877  -0.73276
 Alpha  occ. eigenvalues --   -0.70338  -0.68329  -0.64954  -0.62556  -0.59599
 Alpha  occ. eigenvalues --   -0.58178  -0.56449  -0.55563  -0.54482  -0.53121
 Alpha  occ. eigenvalues --   -0.52107  -0.50675  -0.50418  -0.49562  -0.48950
 Alpha  occ. eigenvalues --   -0.47865  -0.47648  -0.47200  -0.46904  -0.46582
 Alpha  occ. eigenvalues --   -0.46055  -0.45338  -0.45057  -0.44589  -0.44083
 Alpha  occ. eigenvalues --   -0.43706  -0.43155  -0.42093  -0.41608  -0.40978
 Alpha  occ. eigenvalues --   -0.40418  -0.39607  -0.38463  -0.36933  -0.36502
 Alpha  occ. eigenvalues --   -0.35932  -0.34534  -0.33789  -0.31579
 Alpha virt. eigenvalues --    0.03279   0.03611   0.04868   0.06866   0.07145
 Alpha virt. eigenvalues --    0.07672   0.09172   0.09207   0.09885   0.10373
 Alpha virt. eigenvalues --    0.10775   0.11231   0.11561   0.12158   0.12755

 Mulliken charges:
               1
     1  C   -0.034603
     2  C   -0.156717
     3  C    0.235719
     4  C   -0.454906
     5  C    0.342064
     6  H    0.184090
     7  H    0.175429
     8  H    0.220800
     9  H    0.197735
    10  O   -0.244210
    11  O   -0.372255
    12  C   -0.256471
    13  C   -0.442192
    14  C   -0.496901
    15  O   -0.401420
    16  Si   0.492869
    17  C   -0.568801
    18  C   -0.580813
    19  C   -0.585466
    20  H    0.169932
    21  H    0.165646
    22  H    0.171898
    23  H    0.166925
    24  H    0.166834
    25  H    0.165365
    26  H    0.159641
    27  H    0.157375
    28  H    0.156197
    29  H    0.164962
    30  H    0.169311
    31  H    0.174961
    32  H    0.150623
    33  H    0.148501
    34  H    0.149692
    35  H    0.157954
    36  H    0.141129
    37  C   -0.376913
    38  C   -0.127033
    39  C   -0.334433
    40  H    0.185830
    41  H    0.196349
    42  H    0.173340
    43  H    0.148575
    44  H    0.143391
 Sum of Mulliken charges =   0.00000

 Dipole moment (field-independent basis, Debye):
    X=              2.4108    Y=              3.3464    Z=             -2.7979  Tot=              4.9838
 Quadrupole moment (field-independent basis, Debye-Ang):
   XX=           -117.3915   YY=           -129.8222   ZZ=           -123.7237
   XY=            -12.4421   XZ=              8.2418   YZ=              9.0763

 Normal termination of Gaussian 09 at Wed Jun 26 14:08:41 2019.
