 Gaussian 09, Revision D.01,
 Gaussian 09:  ES64L-G09RevD.01 24-Apr-2013

 --------------------------------------------------------
 # m062x/def2tzvp int=ultrafine scrf=(solvent=chloroform)
 --------------------------------------------------------

 ------------
 IP1_4ginp005
 ------------
 Symbolic Z-matrix:
 Charge =  0 Multiplicity = 1

                         Standard orientation:
 ---------------------------------------------------------------------
 Center     Atomic      Atomic             Coordinates (Angstroms)
 Number     Number       Type             X           Y           Z
 ---------------------------------------------------------------------
      1          6           0        2.147592   -0.780463   -0.774270
      2          6           0        1.077047    0.236720   -1.205897
      3          6           0        0.007613    0.495631   -0.105344
      4          6           0        0.641743    0.276236    1.301666
      5          6           0        2.153020    0.353754    1.380144
      6          1           0        2.934313   -0.777540   -1.536723
      7          1           0        1.629295    1.179005   -1.307854
      8          1           0        0.238779    0.963913    2.047221
      9          1           0        0.375305   -0.734701    1.624890
     10          8           0        2.850325   -0.258052    0.399824
     11          8           0        2.752123    0.883852    2.293654
     12          6           0        1.713689   -2.233986   -0.559382
     13          6           0        2.875767   -3.154548   -0.171861
     14          6           0        0.482960   -0.099590   -2.577967
     15          8           0       -1.048424   -0.446469   -0.282155
     16         14           0       -2.638611   -0.582653    0.256935
     17          6           0       -3.064773   -2.383122   -0.082875
     18          6           0       -2.810167   -0.211187    2.100974
     19          6           0       -3.797027    0.537031   -0.726672
     20          1           0       -3.847289   -0.384478    2.411743
     21          1           0       -2.171645   -0.860814    2.708678
     22          1           0       -2.567015    0.827317    2.348631
     23          1           0       -4.839088    0.313052   -0.469483
     24          1           0       -3.628649    1.599197   -0.524314
     25          1           0       -3.680431    0.376937   -1.803855
     26          1           0       -4.102692   -2.598035    0.194751
     27          1           0       -2.946925   -2.622160   -1.144951
     28          1           0       -2.418076   -3.058864    0.486343
     29          1           0        1.282754   -0.228616   -3.314816
     30          1           0       -0.114463   -1.012083   -2.547432
     31          1           0       -0.162474    0.708569   -2.933143
     32          1           0        1.270818   -2.580436   -1.500025
     33          1           0        0.916026   -2.293849    0.186111
     34          1           0        2.530926   -4.187144   -0.062673
     35          1           0        3.661230   -3.143222   -0.935893
     36          1           0        3.328195   -2.846331    0.774639
     37          6           0       -0.547470    1.943703   -0.224122
     38          6           0        0.461648    3.039979   -0.010797
     39          6           0        0.739700    3.998681   -0.896319
     40          1           0       -1.339591    2.045412    0.530239
     41          1           0       -1.022533    2.059177   -1.203717
     42          1           0        0.982019    3.044772    0.947030
     43          1           0        1.466136    4.776996   -0.682661
     44          1           0        0.245395    4.043382   -1.864080
 ---------------------------------------------------------------------

 SCF Done:  E(RM062X) =  -1064.33839404     A.U. after   14 cycles

 The electronic state is 1-A.
 Alpha  occ. eigenvalues --  -67.01723 -19.67010 -19.61933 -19.61616 -10.68000
 Alpha  occ. eigenvalues --  -10.62358 -10.60613 -10.55666 -10.55185 -10.55060
 Alpha  occ. eigenvalues --  -10.54894 -10.53966 -10.53799 -10.53061 -10.52578
 Alpha  occ. eigenvalues --  -10.51300 -10.51042 -10.50893  -5.55173  -3.86358
 Alpha  occ. eigenvalues --   -3.86218  -3.86203  -1.22792  -1.14142  -1.13308
 Alpha  occ. eigenvalues --   -0.93362  -0.90457  -0.87487  -0.85422  -0.80703
 Alpha  occ. eigenvalues --   -0.80003  -0.78698  -0.77065  -0.76821  -0.73083
 Alpha  occ. eigenvalues --   -0.70598  -0.68749  -0.64300  -0.60568  -0.60261
 Alpha  occ. eigenvalues --   -0.58204  -0.57034  -0.55434  -0.54442  -0.52727
 Alpha  occ. eigenvalues --   -0.52393  -0.50888  -0.49959  -0.49581  -0.48901
 Alpha  occ. eigenvalues --   -0.48428  -0.47605  -0.47217  -0.46746  -0.46391
 Alpha  occ. eigenvalues --   -0.45744  -0.45404  -0.45137  -0.44597  -0.44491
 Alpha  occ. eigenvalues --   -0.43573  -0.43210  -0.42433  -0.41514  -0.40525
 Alpha  occ. eigenvalues --   -0.40344  -0.39845  -0.38625  -0.37105  -0.36047
 Alpha  occ. eigenvalues --   -0.35449  -0.34856  -0.33573  -0.31880
 Alpha virt. eigenvalues --    0.02224   0.04268   0.04916   0.06875   0.07206
 Alpha virt. eigenvalues --    0.07690   0.08613   0.09653   0.09855   0.10263
 Alpha virt. eigenvalues --    0.10659   0.11192   0.11419   0.12165   0.12601

 Mulliken charges:
               1
     1  C   -0.015735
     2  C   -0.142487
     3  C    0.251596
     4  C   -0.472534
     5  C    0.347386
     6  H    0.185892
     7  H    0.197760
     8  H    0.203515
     9  H    0.222410
    10  O   -0.248398
    11  O   -0.369742
    12  C   -0.282939
    13  C   -0.429122
    14  C   -0.483220
    15  O   -0.394336
    16  Si   0.460962
    17  C   -0.574386
    18  C   -0.568559
    19  C   -0.559681
    20  H    0.170826
    21  H    0.166195
    22  H    0.164133
    23  H    0.163383
    24  H    0.162295
    25  H    0.164671
    26  H    0.155653
    27  H    0.158766
    28  H    0.155943
    29  H    0.163498
    30  H    0.166890
    31  H    0.155803
    32  H    0.157860
    33  H    0.150084
    34  H    0.150700
    35  H    0.143339
    36  H    0.153663
    37  C   -0.439209
    38  C   -0.132795
    39  C   -0.316491
    40  H    0.190351
    41  H    0.201008
    42  H    0.170629
    43  H    0.150958
    44  H    0.143463
 Sum of Mulliken charges =   0.00000

 Dipole moment (field-independent basis, Debye):
    X=             -4.5890    Y=             -1.2023    Z=             -3.4329  Tot=              5.8557
 Quadrupole moment (field-independent basis, Debye-Ang):
   XX=           -131.3380   YY=           -116.9118   ZZ=           -123.9012
   XY=             -4.3577   XZ=            -14.5369   YZ=             -4.5989

 Normal termination of Gaussian 09 at Wed Jun 26 13:49:14 2019.
