 Gaussian 09, Revision D.01,
 Gaussian 09:  ES64L-G09RevD.01 24-Apr-2013

 --------------------------------------------------------
 # m062x/def2tzvp int=ultrafine scrf=(solvent=chloroform)
 --------------------------------------------------------

 ------------
 IP1_1ginp003
 ------------
 Symbolic Z-matrix:
 Charge =  0 Multiplicity = 1

                         Standard orientation:
 ---------------------------------------------------------------------
 Center     Atomic      Atomic             Coordinates (Angstroms)
 Number     Number       Type             X           Y           Z
 ---------------------------------------------------------------------
      1          6           0       -2.401560    0.141879   -0.350119
      2          6           0       -1.005449    0.323302   -0.963346
      3          6           0        0.101423    0.039722    0.092271
      4          6           0       -0.091369   -1.429883    0.502673
      5          6           0       -1.494364   -1.778337    0.961789
      6          1           0       -2.608665    0.982993    0.324197
      7          1           0       -0.870255   -0.455399   -1.727172
      8          1           0        0.123381   -2.068892   -0.361889
      9          1           0        0.588149   -1.729736    1.304408
     10          8           0       -2.526426   -1.053705    0.487336
     11          8           0       -1.725936   -2.709556    1.704709
     12          6           0       -3.527539    0.041606   -1.381978
     13          6           0       -4.923801   -0.073971   -0.762820
     14          6           0       -0.879998    1.681826   -1.669469
     15          8           0        1.350682    0.226441   -0.564976
     16         14           0        2.920329   -0.352344   -0.365531
     17          6           0        3.535022   -0.183506    1.411644
     18          6           0        3.064384   -2.153096   -0.913664
     19          6           0        3.934632    0.740458   -1.511651
     20          1           0        2.559767   -2.844280   -0.231447
     21          1           0        2.644140   -2.298563   -1.914605
     22          1           0        4.120532   -2.444897   -0.953106
     23          1           0        4.988886    0.442214   -1.502306
     24          1           0        3.575814    0.667821   -2.543622
     25          1           0        3.881207    1.792013   -1.211287
     26          1           0        3.462791    0.848329    1.771034
     27          1           0        2.988144   -0.824764    2.110977
     28          1           0        4.590208   -0.477599    1.460315
     29          1           0       -1.489359    1.706991   -2.576672
     30          1           0       -1.188779    2.508318   -1.025193
     31          1           0        0.158685    1.846537   -1.961162
     32          1           0       -3.326223   -0.821927   -2.028440
     33          1           0       -3.485187    0.930941   -2.018860
     34          1           0       -5.687271   -0.126700   -1.544783
     35          1           0       -5.008774   -0.969220   -0.142384
     36          1           0       -5.149463    0.794822   -0.134231
     37          6           0        0.049222    0.925627    1.368554
     38          6           0        0.317053    2.395262    1.190265
     39          6           0       -0.385976    3.369590    1.770469
     40          1           0        0.814786    0.518828    2.043500
     41          1           0       -0.908442    0.783753    1.882815
     42          1           0        1.175899    2.649604    0.572060
     43          1           0       -0.122704    4.415450    1.642342
     44          1           0       -1.248505    3.157849    2.398678
 ---------------------------------------------------------------------

 SCF Done:  E(RM062X) =  -1064.33929449     A.U. after   14 cycles

 The electronic state is 1-A.
 Alpha  occ. eigenvalues --  -67.01770 -19.67306 -19.62116 -19.61685 -10.68365
 Alpha  occ. eigenvalues --  -10.62154 -10.61058 -10.55849 -10.55488 -10.54820
 Alpha  occ. eigenvalues --  -10.54758 -10.54111 -10.53356 -10.52757 -10.52483
 Alpha  occ. eigenvalues --  -10.51275 -10.51082 -10.50889  -5.55218  -3.86405
 Alpha  occ. eigenvalues --   -3.86260  -3.86249  -1.22994  -1.14272  -1.13497
 Alpha  occ. eigenvalues --   -0.93550  -0.90643  -0.88256  -0.84971  -0.80817
 Alpha  occ. eigenvalues --   -0.79716  -0.78621  -0.77029  -0.76876  -0.73276
 Alpha  occ. eigenvalues --   -0.70339  -0.68328  -0.64955  -0.62555  -0.59599
 Alpha  occ. eigenvalues --   -0.58178  -0.56449  -0.55563  -0.54482  -0.53121
 Alpha  occ. eigenvalues --   -0.52107  -0.50676  -0.50419  -0.49562  -0.48950
 Alpha  occ. eigenvalues --   -0.47865  -0.47648  -0.47201  -0.46904  -0.46581
 Alpha  occ. eigenvalues --   -0.46056  -0.45338  -0.45057  -0.44589  -0.44082
 Alpha  occ. eigenvalues --   -0.43706  -0.43155  -0.42094  -0.41608  -0.40979
 Alpha  occ. eigenvalues --   -0.40419  -0.39607  -0.38463  -0.36933  -0.36501
 Alpha  occ. eigenvalues --   -0.35931  -0.34536  -0.33788  -0.31580
 Alpha virt. eigenvalues --    0.03278   0.03612   0.04868   0.06866   0.07145
 Alpha virt. eigenvalues --    0.07672   0.09172   0.09206   0.09885   0.10372
 Alpha virt. eigenvalues --    0.10776   0.11230   0.11562   0.12158   0.12756

 Mulliken charges:
               1
     1  C   -0.034617
     2  C   -0.156842
     3  C    0.236122
     4  C   -0.455064
     5  C    0.342079
     6  H    0.184097
     7  H    0.175449
     8  H    0.220808
     9  H    0.197750
    10  O   -0.244207
    11  O   -0.372270
    12  C   -0.256443
    13  C   -0.442192
    14  C   -0.496890
    15  O   -0.401489
    16  Si   0.492814
    17  C   -0.580888
    18  C   -0.585382
    19  C   -0.568763
    20  H    0.166898
    21  H    0.166829
    22  H    0.165347
    23  H    0.156191
    24  H    0.159634
    25  H    0.157379
    26  H    0.169937
    27  H    0.165721
    28  H    0.171916
    29  H    0.164955
    30  H    0.169309
    31  H    0.174965
    32  H    0.150622
    33  H    0.148484
    34  H    0.149693
    35  H    0.157955
    36  H    0.141129
    37  C   -0.377202
    38  C   -0.127041
    39  C   -0.334454
    40  H    0.185916
    41  H    0.196370
    42  H    0.173406
    43  H    0.148574
    44  H    0.143394
 Sum of Mulliken charges =   0.00000

 Dipole moment (field-independent basis, Debye):
    X=              2.4105    Y=              3.3468    Z=             -2.7975  Tot=              4.9837
 Quadrupole moment (field-independent basis, Debye-Ang):
   XX=           -117.3918   YY=           -129.8167   ZZ=           -123.7271
   XY=            -12.4396   XZ=              8.2473   YZ=              9.0779

 Normal termination of Gaussian 09 at Wed Jun 26 14:08:48 2019.
