 Gaussian 09, Revision D.01,
 Gaussian 09:  ES64L-G09RevD.01 24-Apr-2013

 --------------------------------------------------------
 # m062x/def2tzvp int=ultrafine scrf=(solvent=chloroform)
 --------------------------------------------------------

 ------------
 IP1_1ginp015
 ------------
 Symbolic Z-matrix:
 Charge =  0 Multiplicity = 1

                         Standard orientation:
 ---------------------------------------------------------------------
 Center     Atomic      Atomic             Coordinates (Angstroms)
 Number     Number       Type             X           Y           Z
 ---------------------------------------------------------------------
      1          6           0       -2.537159    0.117069   -0.609440
      2          6           0       -1.161276   -0.527349   -0.832819
      3          6           0       -0.013502    0.388107   -0.315263
      4          6           0       -0.284156    0.611722    1.181381
      5          6           0       -1.681885    1.099987    1.513506
      6          1           0       -2.656342    0.941415   -1.323278
      7          1           0       -1.096913   -1.432542   -0.216234
      8          1           0       -0.173603   -0.345262    1.706143
      9          1           0        0.420414    1.307584    1.637881
     10          8           0       -2.699611    0.732604    0.709203
     11          8           0       -1.927366    1.748853    2.508986
     12          6           0       -3.741240   -0.819454   -0.770237
     13          6           0       -3.755510   -2.035035    0.161468
     14          6           0       -0.998077   -0.946608   -2.301156
     15          8           0        1.217394   -0.283624   -0.539125
     16         14           0        2.413389   -1.052500    0.354781
     17          6           0        1.751043   -2.593234    1.224999
     18          6           0        3.673659   -1.555200   -0.947857
     19          6           0        3.214090    0.100176    1.616090
     20          1           0        3.230518   -2.230972   -1.686769
     21          1           0        4.059806   -0.680799   -1.481602
     22          1           0        4.524509   -2.071539   -0.489475
     23          1           0        3.504996    1.046740    1.149973
     24          1           0        2.554776    0.327291    2.459811
     25          1           0        4.118750   -0.366329    2.023496
     26          1           0        1.042131   -2.359672    2.026330
     27          1           0        1.251382   -3.264713    0.518542
     28          1           0        2.579875   -3.148874    1.679676
     29          1           0       -1.659533   -1.781699   -2.546377
     30          1           0       -1.229719   -0.127288   -2.989883
     31          1           0        0.030146   -1.264975   -2.482859
     32          1           0       -3.787313   -1.140106   -1.816624
     33          1           0       -4.638340   -0.215268   -0.595626
     34          1           0       -4.696359   -2.582641    0.053503
     35          1           0       -2.943229   -2.734763   -0.058532
     36          1           0       -3.666391   -1.727729    1.207711
     37          6           0        0.060110    1.733274   -1.092002
     38          6           0        1.136824    2.678677   -0.631802
     39          6           0        2.190356    3.040629   -1.365692
     40          1           0       -0.910577    2.240664   -1.011077
     41          1           0        0.215474    1.500652   -2.149433
     42          1           0        1.018402    3.111798    0.361104
     43          1           0        2.928694    3.745655   -0.994897
     44          1           0        2.348003    2.649136   -2.367999
 ---------------------------------------------------------------------

 SCF Done:  E(RM062X) =  -1064.33890428     A.U. after   14 cycles

 The electronic state is 1-A.
 Alpha  occ. eigenvalues --  -67.01620 -19.67393 -19.61831 -19.61827 -10.68441
 Alpha  occ. eigenvalues --  -10.62206 -10.61166 -10.55956 -10.55583 -10.54677
 Alpha  occ. eigenvalues --  -10.54539 -10.54250 -10.53409 -10.53257 -10.52842
 Alpha  occ. eigenvalues --  -10.51106 -10.50901 -10.50727  -5.55056  -3.86246
 Alpha  occ. eigenvalues --   -3.86099  -3.86088  -1.23071  -1.14376  -1.13401
 Alpha  occ. eigenvalues --   -0.93632  -0.90783  -0.88018  -0.84968  -0.80878
 Alpha  occ. eigenvalues --   -0.79645  -0.79039  -0.76913  -0.76714  -0.73738
 Alpha  occ. eigenvalues --   -0.69408  -0.69235  -0.64813  -0.61888  -0.60208
 Alpha  occ. eigenvalues --   -0.58540  -0.56388  -0.55683  -0.54509  -0.53471
 Alpha  occ. eigenvalues --   -0.52628  -0.50736  -0.49762  -0.49482  -0.49099
 Alpha  occ. eigenvalues --   -0.48294  -0.47490  -0.47305  -0.46978  -0.46548
 Alpha  occ. eigenvalues --   -0.45815  -0.45497  -0.44842  -0.44430  -0.44366
 Alpha  occ. eigenvalues --   -0.43554  -0.42791  -0.41999  -0.41587  -0.41242
 Alpha  occ. eigenvalues --   -0.40812  -0.39352  -0.38615  -0.36942  -0.36692
 Alpha  occ. eigenvalues --   -0.36001  -0.34107  -0.33458  -0.32048
 Alpha virt. eigenvalues --    0.03085   0.03439   0.05081   0.06647   0.07066
 Alpha virt. eigenvalues --    0.07182   0.09429   0.09733   0.09809   0.10137
 Alpha virt. eigenvalues --    0.10587   0.11094   0.11838   0.12005   0.12739

 Mulliken charges:
               1
     1  C   -0.004123
     2  C   -0.205154
     3  C    0.272245
     4  C   -0.480651
     5  C    0.354125
     6  H    0.186251
     7  H    0.201448
     8  H    0.203252
     9  H    0.204981
    10  O   -0.241268
    11  O   -0.368203
    12  C   -0.281754
    13  C   -0.464260
    14  C   -0.498670
    15  O   -0.382311
    16  Si   0.469403
    17  C   -0.572938
    18  C   -0.570239
    19  C   -0.570149
    20  H    0.155810
    21  H    0.158373
    22  H    0.153613
    23  H    0.168017
    24  H    0.165872
    25  H    0.166741
    26  H    0.161336
    27  H    0.162566
    28  H    0.167798
    29  H    0.169977
    30  H    0.165894
    31  H    0.172895
    32  H    0.165878
    33  H    0.160477
    34  H    0.157290
    35  H    0.145592
    36  H    0.158274
    37  C   -0.386536
    38  C   -0.127314
    39  C   -0.339178
    40  H    0.194082
    41  H    0.186658
    42  H    0.171491
    43  H    0.149200
    44  H    0.143208
 Sum of Mulliken charges =   0.00000

 Dipole moment (field-independent basis, Debye):
    X=              1.6855    Y=             -3.1689    Z=             -3.6633  Tot=              5.1286
 Quadrupole moment (field-independent basis, Debye-Ang):
   XX=           -120.1112   YY=           -122.9349   ZZ=           -127.7001
   XY=              8.0399   XZ=             13.8364   YZ=             -7.8535

 1\1\GINC-CPU-E-31\SP\RM062X\def2TZVP\C14H26O3Si1\KE291\26-Jun-2019\0\\
 # m062x/def2tzvp int=ultrafine scrf=(solvent=chloroform)\\IP1_1ginp015
 \\0,1\C,0,-2.537159,0.117069,-0.60944\C,0,-1.161276,-0.527349,-0.83281
 9\C,0,-0.013502,0.388107,-0.315263\C,0,-0.284156,0.611722,1.181381\C,0
 ,-1.681885,1.099987,1.513506\H,0,-2.656342,0.941415,-1.323278\H,0,-1.0
 96913,-1.432542,-0.216234\H,0,-0.173603,-0.345262,1.706143\H,0,0.42041
 4,1.307584,1.637881\O,0,-2.699611,0.732604,0.709203\O,0,-1.927366,1.74
 8853,2.508986\C,0,-3.74124,-0.819454,-0.770237\C,0,-3.75551,-2.035035,

 Normal termination of Gaussian 09 at Wed Jun 26 13:55:26 2019.
