 Gaussian 09, Revision D.01,
 Gaussian 09:  ES64L-G09RevD.01 24-Apr-2013

 --------------------------------------------------------
 # m062x/def2tzvp int=ultrafine scrf=(solvent=chloroform)
 --------------------------------------------------------

 ------------
 IP1_2ginp013
 ------------
 Symbolic Z-matrix:
 Charge =  0 Multiplicity = 1

                         Standard orientation:
 ---------------------------------------------------------------------
 Center     Atomic      Atomic             Coordinates (Angstroms)
 Number     Number       Type             X           Y           Z
 ---------------------------------------------------------------------
      1          6           0        2.438046   -0.423687    0.252018
      2          6           0        0.982076   -0.798640    0.640176
      3          6           0       -0.025845    0.363445    0.410581
      4          6           0        0.191097    0.866568   -1.024727
      5          6           0        1.597301    1.377776   -1.251111
      6          1           0        2.997405   -0.186551    1.163494
      7          1           0        0.651883   -1.587406   -0.048179
      8          1           0        0.015180    0.047867   -1.733352
      9          1           0       -0.490732    1.679322   -1.277231
     10          8           0        2.588586    0.799355   -0.542242
     11          8           0        1.868868    2.284292   -2.009677
     12          6           0        3.188431   -1.508909   -0.533613
     13          6           0        3.402201   -2.832093    0.207552
     14          6           0        0.924143   -1.367033    2.066675
     15          8           0       -1.349195   -0.128032    0.603008
     16         14           0       -2.530677   -0.876265   -0.332817
     17          6           0       -3.289403    0.330994   -1.568515
     18          6           0       -1.879275   -2.397800   -1.243692
     19          6           0       -3.822723   -1.399867    0.929502
     20          1           0       -2.707550   -2.893882   -1.763657
     21          1           0       -1.124042   -2.156464   -1.999014
     22          1           0       -1.443483   -3.125606   -0.550983
     23          1           0       -4.672451   -1.886336    0.437630
     24          1           0       -3.403704   -2.107335    1.652564
     25          1           0       -4.206686   -0.538840    1.486270
     26          1           0       -4.165445   -0.123377   -2.046102
     27          1           0       -3.622046    1.247368   -1.069505
     28          1           0       -2.592821    0.615421   -2.363312
     29          1           0       -0.110087   -1.588943    2.340341
     30          1           0        1.501976   -2.290106    2.149927
     31          1           0        1.327757   -0.661234    2.799193
     32          1           0        4.160020   -1.086848   -0.812240
     33          1           0        2.646173   -1.690127   -1.470677
     34          1           0        3.908322   -2.678285    1.166743
     35          1           0        2.461068   -3.354917    0.401249
     36          1           0        4.027860   -3.498875   -0.393064
     37          6           0        0.154075    1.514541    1.436946
     38          6           0       -0.761154    2.686741    1.210479
     39          6           0       -0.356792    3.941749    1.007967
     40          1           0        1.196683    1.850635    1.436481
     41          1           0       -0.050593    1.091292    2.426881
     42          1           0       -1.826772    2.464292    1.229951
     43          1           0       -1.065347    4.752406    0.864364
     44          1           0        0.697776    4.206604    0.981518
 ---------------------------------------------------------------------

 SCF Done:  E(RM062X) =  -1064.33789043     A.U. after   14 cycles

 The electronic state is 1-A.
 Alpha  occ. eigenvalues --  -67.01761 -19.67252 -19.62042 -19.61717 -10.68214
 Alpha  occ. eigenvalues --  -10.62158 -10.61285 -10.55785 -10.55675 -10.54411
 Alpha  occ. eigenvalues --  -10.54340 -10.54282 -10.53305 -10.53227 -10.53206
 Alpha  occ. eigenvalues --  -10.51376 -10.51039 -10.50870  -5.55209  -3.86396
 Alpha  occ. eigenvalues --   -3.86253  -3.86239  -1.22938  -1.14244  -1.13431
 Alpha  occ. eigenvalues --   -0.93453  -0.90811  -0.87736  -0.85141  -0.80995
 Alpha  occ. eigenvalues --   -0.79682  -0.79225  -0.77130  -0.76849  -0.73251
 Alpha  occ. eigenvalues --   -0.69789  -0.68920  -0.64439  -0.62043  -0.59779
 Alpha  occ. eigenvalues --   -0.58482  -0.56688  -0.55574  -0.54393  -0.53708
 Alpha  occ. eigenvalues --   -0.51860  -0.51087  -0.49946  -0.49793  -0.48289
 Alpha  occ. eigenvalues --   -0.48032  -0.47655  -0.47386  -0.46783  -0.46627
 Alpha  occ. eigenvalues --   -0.45824  -0.45466  -0.45080  -0.44625  -0.44417
 Alpha  occ. eigenvalues --   -0.43718  -0.43208  -0.42928  -0.41296  -0.41123
 Alpha  occ. eigenvalues --   -0.40888  -0.39217  -0.38670  -0.37284  -0.36197
 Alpha  occ. eigenvalues --   -0.35999  -0.34320  -0.33535  -0.31796
 Alpha virt. eigenvalues --    0.03482   0.03975   0.04711   0.06539   0.06856
 Alpha virt. eigenvalues --    0.07745   0.08401   0.09405   0.09757   0.09856
 Alpha virt. eigenvalues --    0.10736   0.11427   0.11693   0.12265   0.12382

 Mulliken charges:
               1
     1  C   -0.001368
     2  C   -0.253029
     3  C    0.282272
     4  C   -0.462732
     5  C    0.340012
     6  H    0.182644
     7  H    0.198618
     8  H    0.206180
     9  H    0.215011
    10  O   -0.245901
    11  O   -0.363897
    12  C   -0.246432
    13  C   -0.482831
    14  C   -0.483528
    15  O   -0.393956
    16  Si   0.472946
    17  C   -0.562675
    18  C   -0.588757
    19  C   -0.571089
    20  H    0.173649
    21  H    0.162741
    22  H    0.167309
    23  H    0.154136
    24  H    0.156322
    25  H    0.158968
    26  H    0.164565
    27  H    0.166509
    28  H    0.164938
    29  H    0.169538
    30  H    0.169477
    31  H    0.172271
    32  H    0.157522
    33  H    0.150019
    34  H    0.164441
    35  H    0.151221
    36  H    0.161511
    37  C   -0.382287
    38  C   -0.145209
    39  C   -0.312975
    40  H    0.198590
    41  H    0.184786
    42  H    0.159672
    43  H    0.146247
    44  H    0.144553
 Sum of Mulliken charges =   0.00000

 Dipole moment (field-independent basis, Debye):
    X=             -1.8431    Y=             -5.0816    Z=              2.1709  Tot=              5.8252
 Quadrupole moment (field-independent basis, Debye-Ang):
   XX=           -119.1834   YY=           -125.1226   ZZ=           -125.9191
   XY=            -10.6490   XZ=             10.5492   YZ=              8.5603

 1\1\GINC-CPU-E-98\SP\RM062X\def2TZVP\C14H26O3Si1\KE291\26-Jun-2019\0\\
 # m062x/def2tzvp int=ultrafine scrf=(solvent=chloroform)\\IP1_2ginp013
 \\0,1\C,0,2.438046,-0.423687,0.252018\C,0,0.982076,-0.79864,0.640176\C
 ,0,-0.025845,0.363445,0.410581\C,0,0.191097,0.866568,-1.024727\C,0,1.5
 97301,1.377776,-1.251111\H,0,2.997405,-0.186551,1.163494\H,0,0.651883,
 -1.587406,-0.048179\H,0,0.01518,0.047867,-1.733352\H,0,-0.490732,1.679
 322,-1.277231\O,0,2.588586,0.799355,-0.542242\O,0,1.868868,2.284292,-2
 .009677\C,0,3.188431,-1.508909,-0.533613\C,0,3.402201,-2.832093,0.2075

 Normal termination of Gaussian 09 at Wed Jun 26 13:53:57 2019.
