 Gaussian 09, Revision D.01,
 Gaussian 09:  ES64L-G09RevD.01 24-Apr-2013

 --------------------------------------------------------
 # m062x/def2tzvp int=ultrafine scrf=(solvent=chloroform)
 --------------------------------------------------------

 ------------
 IP1_1ginp012
 ------------
 Symbolic Z-matrix:
 Charge =  0 Multiplicity = 1

                         Standard orientation:
 ---------------------------------------------------------------------
 Center     Atomic      Atomic             Coordinates (Angstroms)
 Number     Number       Type             X           Y           Z
 ---------------------------------------------------------------------
      1          6           0        2.203326   -0.037948    0.495328
      2          6           0        0.722800    0.171546    0.850456
      3          6           0       -0.140716    0.253465   -0.441087
      4          6           0        0.029223   -1.103326   -1.145175
      5          6           0        1.470910   -1.512529   -1.382415
      6          1           0        2.606784    0.895853    0.083131
      7          1           0        0.377764   -0.732331    1.371795
      8          1           0       -0.408287   -1.894550   -0.524426
      9          1           0       -0.482738   -1.130450   -2.109641
     10          8           0        2.420627   -1.040461   -0.550312
     11          8           0        1.794247   -2.285472   -2.259946
     12          6           0        3.072975   -0.477282    1.675286
     13          6           0        4.557645   -0.621238    1.326917
     14          6           0        0.545273    1.353939    1.815568
     15          8           0       -1.501912    0.497183   -0.103667
     16         14           0       -2.831977   -0.428552    0.354240
     17          6           0       -4.094332    0.857231    0.892455
     18          6           0       -3.510137   -1.415657   -1.104256
     19          6           0       -2.439857   -1.592190    1.789282
     20          1           0       -3.698470   -0.765893   -1.965608
     21          1           0       -2.833409   -2.213165   -1.426169
     22          1           0       -4.462218   -1.883979   -0.828211
     23          1           0       -3.362779   -2.078386    2.127235
     24          1           0       -1.737896   -2.387514    1.516821
     25          1           0       -2.021302   -1.049946    2.643670
     26          1           0       -3.732725    1.438566    1.746911
     27          1           0       -4.313078    1.556799    0.079070
     28          1           0       -5.036138    0.380279    1.185799
     29          1           0        0.921198    1.103949    2.811028
     30          1           0        1.065415    2.249016    1.466689
     31          1           0       -0.514500    1.598021    1.910986
     32          1           0        2.679545   -1.426690    2.060143
     33          1           0        2.957571    0.261419    2.474947
     34          1           0        5.130590   -0.927936    2.207126
     35          1           0        4.709179   -1.367885    0.543920
     36          1           0        4.973432    0.328700    0.972644
     37          6           0        0.259095    1.372421   -1.442731
     38          6           0        0.080825    2.793013   -0.982036
     39          6           0        0.974416    3.767232   -1.162875
     40          1           0       -0.387402    1.215078   -2.317495
     41          1           0        1.287399    1.219617   -1.789370
     42          1           0       -0.873768    3.018472   -0.511179
     43          1           0        0.774993    4.787783   -0.849235
     44          1           0        1.936144    3.582819   -1.636840
 ---------------------------------------------------------------------

 SCF Done:  E(RM062X) =  -1064.33888132     A.U. after   14 cycles

 The electronic state is 1-A.
 Alpha  occ. eigenvalues --  -67.01800 -19.67355 -19.62085 -19.61740 -10.68419
 Alpha  occ. eigenvalues --  -10.62172 -10.61163 -10.55928 -10.55673 -10.54632
 Alpha  occ. eigenvalues --  -10.54565 -10.54184 -10.53214 -10.52990 -10.52526
 Alpha  occ. eigenvalues --  -10.51384 -10.51063 -10.50906  -5.55249  -3.86437
 Alpha  occ. eigenvalues --   -3.86292  -3.86278  -1.23035  -1.14327  -1.13490
 Alpha  occ. eigenvalues --   -0.93600  -0.90681  -0.88155  -0.85070  -0.81040
 Alpha  occ. eigenvalues --   -0.79516  -0.78647  -0.77145  -0.76877  -0.73162
 Alpha  occ. eigenvalues --   -0.70400  -0.68451  -0.64809  -0.62898  -0.59487
 Alpha  occ. eigenvalues --   -0.58361  -0.56519  -0.55629  -0.54416  -0.53163
 Alpha  occ. eigenvalues --   -0.52188  -0.50558  -0.50136  -0.49735  -0.48784
 Alpha  occ. eigenvalues --   -0.47933  -0.47591  -0.47128  -0.46676  -0.46587
 Alpha  occ. eigenvalues --   -0.46125  -0.45785  -0.45110  -0.44647  -0.44303
 Alpha  occ. eigenvalues --   -0.43682  -0.43086  -0.42208  -0.41794  -0.40924
 Alpha  occ. eigenvalues --   -0.40475  -0.39645  -0.38329  -0.37199  -0.36652
 Alpha  occ. eigenvalues --   -0.36081  -0.34347  -0.33645  -0.31538
 Alpha virt. eigenvalues --    0.03327   0.03537   0.04920   0.06907   0.06918
 Alpha virt. eigenvalues --    0.07411   0.09145   0.09725   0.09955   0.10039
 Alpha virt. eigenvalues --    0.11133   0.11392   0.11588   0.12115   0.12584

 Mulliken charges:
               1
     1  C   -0.018745
     2  C   -0.193591
     3  C    0.249636
     4  C   -0.451912
     5  C    0.337596
     6  H    0.186899
     7  H    0.187587
     8  H    0.203082
     9  H    0.211046
    10  O   -0.244663
    11  O   -0.371583
    12  C   -0.257404
    13  C   -0.442217
    14  C   -0.494075
    15  O   -0.394454
    16  Si   0.460502
    17  C   -0.574459
    18  C   -0.558068
    19  C   -0.578333
    20  H    0.165852
    21  H    0.163383
    22  H    0.162856
    23  H    0.172789
    24  H    0.165074
    25  H    0.167113
    26  H    0.156952
    27  H    0.159883
    28  H    0.155635
    29  H    0.168419
    30  H    0.175792
    31  H    0.170775
    32  H    0.150424
    33  H    0.149701
    34  H    0.149772
    35  H    0.158078
    36  H    0.141435
    37  C   -0.346507
    38  C   -0.130536
    39  C   -0.333464
    40  H    0.174116
    41  H    0.187434
    42  H    0.167689
    43  H    0.147882
    44  H    0.142607
 Sum of Mulliken charges =   0.00000

 Dipole moment (field-independent basis, Debye):
    X=             -2.5245    Y=              2.3094    Z=              4.0732  Tot=              5.3195
 Quadrupole moment (field-independent basis, Debye-Ang):
   XX=           -119.9043   YY=           -127.2244   ZZ=           -125.6864
   XY=             12.0638   XZ=              8.7034   YZ=             -8.8985

 1\1\GINC-CPU-E-31\SP\RM062X\def2TZVP\C14H26O3Si1\KE291\26-Jun-2019\0\\
 # m062x/def2tzvp int=ultrafine scrf=(solvent=chloroform)\\IP1_1ginp012
 \\0,1\C,0,2.203326,-0.037948,0.495328\C,0,0.7228,0.171546,0.850456\C,0
 ,-0.140716,0.253465,-0.441087\C,0,0.029223,-1.103326,-1.145175\C,0,1.4
 7091,-1.512529,-1.382415\H,0,2.606784,0.895853,0.083131\H,0,0.377764,-
 0.732331,1.371795\H,0,-0.408287,-1.89455,-0.524426\H,0,-0.482738,-1.13
 045,-2.109641\O,0,2.420627,-1.040461,-0.550312\O,0,1.794247,-2.285472,
 -2.259946\C,0,3.072975,-0.477282,1.675286\C,0,4.557645,-0.621238,1.326

 Normal termination of Gaussian 09 at Wed Jun 26 13:54:57 2019.
