 Gaussian 09, Revision D.01,
 Gaussian 09:  ES64L-G09RevD.01 24-Apr-2013

 --------------------------------------------------------
 # m062x/def2tzvp int=ultrafine scrf=(solvent=chloroform)
 --------------------------------------------------------

 ------------
 IP1_1ginp018
 ------------
 Symbolic Z-matrix:
 Charge =  0 Multiplicity = 1

                         Standard orientation:
 ---------------------------------------------------------------------
 Center     Atomic      Atomic             Coordinates (Angstroms)
 Number     Number       Type             X           Y           Z
 ---------------------------------------------------------------------
      1          6           0       -2.313951   -0.552500   -0.369122
      2          6           0       -0.840754   -0.935057   -0.590617
      3          6           0        0.098001    0.290150   -0.398412
      4          6           0       -0.130677    0.811571    1.027106
      5          6           0       -1.581675    1.071067    1.381474
      6          1           0       -2.674737    0.000072   -1.246358
      7          1           0       -0.558186   -1.648609    0.195239
      8          1           0        0.223852    0.066715    1.749870
      9          1           0        0.419408    1.735462    1.213379
     10          8           0       -2.536973    0.350707    0.759517
     11          8           0       -1.914374    1.859442    2.241591
     12          6           0       -3.233771   -1.751797   -0.126734
     13          6           0       -4.713797   -1.378433    0.000239
     14          6           0       -0.659816   -1.630995   -1.948702
     15          8           0        1.449741   -0.114221   -0.596795
     16         14           0        2.676742   -0.786648    0.338576
     17          6           0        3.983486   -1.259402   -0.929037
     18          6           0        3.379930    0.479863    1.547070
     19          6           0        2.109806   -2.325235    1.276609
     20          1           0        4.271120    0.074319    2.040346
     21          1           0        3.677468    1.396072    1.026091
     22          1           0        2.667964    0.756534    2.330870
     23          1           0        1.348444   -2.111085    2.033958
     24          1           0        1.705825   -3.083224    0.597202
     25          1           0        2.965557   -2.771575    1.796927
     26          1           0        4.314253   -0.386756   -1.501714
     27          1           0        4.863573   -1.691741   -0.440029
     28          1           0        3.596883   -1.998832   -1.638080
     29          1           0       -1.107199   -2.627869   -1.946068
     30          1           0       -1.120758   -1.063353   -2.763649
     31          1           0        0.403508   -1.740245   -2.170815
     32          1           0       -2.893481   -2.268000    0.779758
     33          1           0       -3.105098   -2.453502   -0.957456
     34          1           0       -5.323420   -2.272575    0.161380
     35          1           0       -4.878851   -0.697438    0.838610
     36          1           0       -5.075970   -0.887150   -0.909858
     37          6           0       -0.172099    1.407768   -1.442464
     38          6           0        0.738727    2.598247   -1.313349
     39          6           0        0.329877    3.850168   -1.100468
     40          1           0       -1.214472    1.738057   -1.372220
     41          1           0       -0.038577    0.963332   -2.435992
     42          1           0        1.802283    2.391350   -1.415018
     43          1           0        1.033125    4.674902   -1.029338
     44          1           0       -0.723773    4.098294   -0.993158
 ---------------------------------------------------------------------

 SCF Done:  E(RM062X) =  -1064.34100158     A.U. after   14 cycles

 The electronic state is 1-A.
 Alpha  occ. eigenvalues --  -67.01751 -19.67305 -19.62013 -19.61655 -10.68318
 Alpha  occ. eigenvalues --  -10.62104 -10.61193 -10.55732 -10.55687 -10.54504
 Alpha  occ. eigenvalues --  -10.54460 -10.54232 -10.53344 -10.53307 -10.52556
 Alpha  occ. eigenvalues --  -10.51353 -10.51017 -10.50887  -5.55201  -3.86388
 Alpha  occ. eigenvalues --   -3.86245  -3.86230  -1.22983  -1.14256  -1.13426
 Alpha  occ. eigenvalues --   -0.93619  -0.90832  -0.87927  -0.85040  -0.81036
 Alpha  occ. eigenvalues --   -0.79422  -0.78896  -0.77114  -0.76849  -0.73164
 Alpha  occ. eigenvalues --   -0.70490  -0.68402  -0.64800  -0.62476  -0.60040
 Alpha  occ. eigenvalues --   -0.57983  -0.55910  -0.55677  -0.54682  -0.54018
 Alpha  occ. eigenvalues --   -0.51565  -0.51057  -0.50266  -0.49786  -0.48702
 Alpha  occ. eigenvalues --   -0.47873  -0.47559  -0.47348  -0.46847  -0.46593
 Alpha  occ. eigenvalues --   -0.45903  -0.45578  -0.44810  -0.44603  -0.43939
 Alpha  occ. eigenvalues --   -0.43437  -0.43169  -0.42249  -0.41807  -0.41002
 Alpha  occ. eigenvalues --   -0.40596  -0.39487  -0.38760  -0.37153  -0.36529
 Alpha  occ. eigenvalues --   -0.36016  -0.34297  -0.33490  -0.31938
 Alpha virt. eigenvalues --    0.03217   0.03828   0.05058   0.06902   0.07123
 Alpha virt. eigenvalues --    0.07660   0.09106   0.09546   0.09786   0.10015
 Alpha virt. eigenvalues --    0.11138   0.11278   0.11570   0.11905   0.12497

 Mulliken charges:
               1
     1  C   -0.036690
     2  C   -0.188293
     3  C    0.286831
     4  C   -0.460521
     5  C    0.344292
     6  H    0.185974
     7  H    0.189879
     8  H    0.200557
     9  H    0.218586
    10  O   -0.243937
    11  O   -0.371128
    12  C   -0.251962
    13  C   -0.441666
    14  C   -0.494772
    15  O   -0.398294
    16  Si   0.457012
    17  C   -0.570647
    18  C   -0.553342
    19  C   -0.581102
    20  H    0.163499
    21  H    0.165506
    22  H    0.163825
    23  H    0.164529
    24  H    0.166893
    25  H    0.172544
    26  H    0.158739
    27  H    0.154469
    28  H    0.156142
    29  H    0.167740
    30  H    0.167822
    31  H    0.172574
    32  H    0.150843
    33  H    0.145518
    34  H    0.149803
    35  H    0.158174
    36  H    0.141401
    37  C   -0.383678
    38  C   -0.143611
    39  C   -0.316673
    40  H    0.194739
    41  H    0.187644
    42  H    0.159806
    43  H    0.146968
    44  H    0.144009
 Sum of Mulliken charges =   0.00000

 Dipole moment (field-independent basis, Debye):
    X=              2.2575    Y=             -4.0844    Z=             -3.0297  Tot=              5.5640
 Quadrupole moment (field-independent basis, Debye-Ang):
   XX=           -120.6743   YY=           -121.3062   ZZ=           -128.0715
   XY=              7.9501   XZ=             12.9292   YZ=             -7.2042

 1\1\GINC-CPU-E-68\SP\RM062X\def2TZVP\C14H26O3Si1\KE291\26-Jun-2019\0\\
 # m062x/def2tzvp int=ultrafine scrf=(solvent=chloroform)\\IP1_1ginp018
 \\0,1\C,0,-2.313951,-0.5525,-0.369122\C,0,-0.840754,-0.935057,-0.59061
 7\C,0,0.098001,0.29015,-0.398412\C,0,-0.130677,0.811571,1.027106\C,0,-
 1.581675,1.071067,1.381474\H,0,-2.674737,0.000072,-1.246358\H,0,-0.558
 186,-1.648609,0.195239\H,0,0.223852,0.066715,1.74987\H,0,0.419408,1.73
 5462,1.213379\O,0,-2.536973,0.350707,0.759517\O,0,-1.914374,1.859442,2
 .241591\C,0,-3.233771,-1.751797,-0.126734\C,0,-4.713797,-1.378433,0.00

 Normal termination of Gaussian 09 at Wed Jun 26 13:53:22 2019.
