 Gaussian 09, Revision D.01,
 Gaussian 09:  ES64L-G09RevD.01 24-Apr-2013

 --------------------------------------------------------
 # m062x/def2tzvp int=ultrafine scrf=(solvent=chloroform)
 --------------------------------------------------------

 ------------
 IP1_3ginp006
 ------------
 Symbolic Z-matrix:
 Charge =  0 Multiplicity = 1

                         Standard orientation:
 ---------------------------------------------------------------------
 Center     Atomic      Atomic             Coordinates (Angstroms)
 Number     Number       Type             X           Y           Z
 ---------------------------------------------------------------------
      1          6           0        2.172252   -0.883042    0.702953
      2          6           0        1.083003   -0.012742    1.354855
      3          6           0        0.008582    0.464220    0.335951
      4          6           0        0.658392    0.638171   -1.070395
      5          6           0        2.171446    0.720810   -1.129017
      6          1           0        2.952310   -1.052663    1.453513
      7          1           0        1.625827    0.886130    1.670811
      8          1           0        0.387365   -0.238439   -1.667141
      9          1           0        0.274215    1.515498   -1.592464
     10          8           0        2.872661   -0.087388   -0.303889
     11          8           0        2.771631    1.424293   -1.914723
     12          6           0        1.763620   -2.246363    0.137029
     13          6           0        2.950852   -3.042583   -0.414491
     14          6           0        0.498739   -0.665105    2.612631
     15          8           0       -0.994191   -0.549944    0.261967
     16         14           0       -2.562542   -0.635990   -0.348603
     17          6           0       -2.887769   -2.484502   -0.476448
     18          6           0       -3.804084    0.140558    0.842232
     19          6           0       -2.719381    0.167956   -2.050606
     20          1           0       -4.826030   -0.057407    0.497937
     21          1           0       -3.705244   -0.286180    1.846116
     22          1           0       -3.688495    1.225497    0.925454
     23          1           0       -2.030700   -0.277200   -2.776215
     24          1           0       -3.737396    0.019012   -2.429633
     25          1           0       -2.535202    1.247067   -2.030724
     26          1           0       -2.194172   -2.963764   -1.175121
     27          1           0       -2.774000   -2.973349    0.496747
     28          1           0       -3.906869   -2.677140   -0.829912
     29          1           0       -0.169051    0.023662    3.137750
     30          1           0       -0.073013   -1.562643    2.372479
     31          1           0        1.301973   -0.936000    3.305845
     32          1           0        0.994795   -2.127605   -0.631437
     33          1           0        1.291330   -2.808962    0.950197
     34          1           0        2.622791   -4.017391   -0.787647
     35          1           0        3.438205   -2.511447   -1.236798
     36          1           0        3.704489   -3.218236    0.361491
     37          6           0       -0.640382    1.803776    0.795178
     38          6           0        0.285716    2.986219    0.893824
     39          6           0        0.255599    4.041197    0.077099
     40          1           0       -1.119115    1.624028    1.765317
     41          1           0       -1.437999    2.042966    0.083426
     42          1           0        1.017141    2.974370    1.700952
     43          1           0        0.945383    4.871567    0.193755
     44          1           0       -0.463264    4.115372   -0.735876
 ---------------------------------------------------------------------

 SCF Done:  E(RM062X) =  -1064.33763207     A.U. after   14 cycles

 The electronic state is 1-A.
 Alpha  occ. eigenvalues --  -67.01709 -19.66921 -19.61874 -19.61398 -10.67840
 Alpha  occ. eigenvalues --  -10.62346 -10.60595 -10.55467 -10.55408 -10.55005
 Alpha  occ. eigenvalues --  -10.54861 -10.53916 -10.53864 -10.53129 -10.52541
 Alpha  occ. eigenvalues --  -10.51310 -10.51032 -10.50891  -5.55161  -3.86345
 Alpha  occ. eigenvalues --   -3.86206  -3.86190  -1.22682  -1.14015  -1.13220
 Alpha  occ. eigenvalues --   -0.93287  -0.90449  -0.87404  -0.85352  -0.80709
 Alpha  occ. eigenvalues --   -0.79996  -0.78696  -0.77074  -0.76814  -0.72970
 Alpha  occ. eigenvalues --   -0.70576  -0.68937  -0.64239  -0.60623  -0.60038
 Alpha  occ. eigenvalues --   -0.57890  -0.56913  -0.55622  -0.54356  -0.52888
 Alpha  occ. eigenvalues --   -0.51805  -0.51487  -0.50468  -0.49238  -0.48920
 Alpha  occ. eigenvalues --   -0.47839  -0.47546  -0.47188  -0.47050  -0.46330
 Alpha  occ. eigenvalues --   -0.45759  -0.45229  -0.44725  -0.44546  -0.44421
 Alpha  occ. eigenvalues --   -0.43521  -0.43201  -0.42793  -0.41368  -0.40472
 Alpha  occ. eigenvalues --   -0.40406  -0.39763  -0.38795  -0.36883  -0.35972
 Alpha  occ. eigenvalues --   -0.35328  -0.34774  -0.33856  -0.31823
 Alpha virt. eigenvalues --    0.02241   0.04327   0.04949   0.06466   0.07358
 Alpha virt. eigenvalues --    0.07645   0.08791   0.09145   0.09647   0.10105
 Alpha virt. eigenvalues --    0.10852   0.11451   0.11644   0.12228   0.12777

 Mulliken charges:
               1
     1  C   -0.015796
     2  C   -0.147231
     3  C    0.277528
     4  C   -0.456674
     5  C    0.362865
     6  H    0.184376
     7  H    0.179113
     8  H    0.219555
     9  H    0.188725
    10  O   -0.251152
    11  O   -0.371682
    12  C   -0.279976
    13  C   -0.430386
    14  C   -0.479354
    15  O   -0.397583
    16  Si   0.456136
    17  C   -0.574189
    18  C   -0.558593
    19  C   -0.566309
    20  H    0.162836
    21  H    0.164481
    22  H    0.162061
    23  H    0.166977
    24  H    0.170956
    25  H    0.162183
    26  H    0.156332
    27  H    0.158890
    28  H    0.155824
    29  H    0.157915
    30  H    0.165990
    31  H    0.162872
    32  H    0.151088
    33  H    0.157173
    34  H    0.150547
    35  H    0.154434
    36  H    0.142749
    37  C   -0.446044
    38  C   -0.128559
    39  C   -0.319590
    40  H    0.206488
    41  H    0.186366
    42  H    0.162789
    43  H    0.151542
    44  H    0.144328
 Sum of Mulliken charges =   0.00000

 Dipole moment (field-independent basis, Debye):
    X=             -4.6141    Y=             -1.9266    Z=              3.1443  Tot=              5.9066
 Quadrupole moment (field-independent basis, Debye-Ang):
   XX=           -131.5278   YY=           -118.6278   ZZ=           -121.5379
   XY=             -7.9180   XZ=             14.4091   YZ=              4.2790

 Normal termination of Gaussian 09 at Wed Jun 26 13:55:50 2019.
