 Gaussian 09, Revision D.01,
 Gaussian 09:  ES64L-G09RevD.01 24-Apr-2013

 --------------------------------------------------------
 # m062x/def2tzvp int=ultrafine scrf=(solvent=chloroform)
 --------------------------------------------------------

 ------------
 IP1_1ginp011
 ------------
 Symbolic Z-matrix:
 Charge =  0 Multiplicity = 1

                         Standard orientation:
 ---------------------------------------------------------------------
 Center     Atomic      Atomic             Coordinates (Angstroms)
 Number     Number       Type             X           Y           Z
 ---------------------------------------------------------------------
      1          6           0        2.466611    0.389048    0.070247
      2          6           0        1.134383    0.325576    0.825763
      3          6           0       -0.027489   -0.009585   -0.152912
      4          6           0        0.302249   -1.404543   -0.715606
      5          6           0        1.706875   -1.567350   -1.268200
      6          1           0        2.455583    1.265143   -0.589595
      7          1           0        1.168014   -0.531063    1.510757
      8          1           0        0.196515   -2.136783    0.093825
      9          1           0       -0.385023   -1.704845   -1.508693
     10          8           0        2.685465   -0.759305   -0.812743
     11          8           0        1.990992   -2.431668   -2.071639
     12          6           0        3.723711    0.472626    0.944033
     13          6           0        3.901676   -0.671686    1.946347
     14          6           0        0.924273    1.582474    1.682778
     15          8           0       -1.208632   -0.073484    0.640281
     16         14           0       -2.831128   -0.464915    0.413823
     17          6           0       -3.091900   -1.935532   -0.740815
     18          6           0       -3.431380   -0.891700    2.144581
     19          6           0       -3.798921    1.012482   -0.250394
     20          1           0       -2.909629   -1.769935    2.538838
     21          1           0       -3.261746   -0.061634    2.838293
     22          1           0       -4.504848   -1.111405    2.142185
     23          1           0       -4.865985    0.765274   -0.299637
     24          1           0       -3.692578    1.886954    0.400283
     25          1           0       -3.482111    1.302283   -1.257316
     26          1           0       -2.794196   -1.720483   -1.772470
     27          1           0       -2.547571   -2.824961   -0.408148
     28          1           0       -4.158627   -2.189110   -0.758658
     29          1           0        1.074617    2.501440    1.111622
     30          1           0       -0.091831    1.588778    2.081332
     31          1           0        1.615993    1.590707    2.530011
     32          1           0        3.713537    1.436913    1.463232
     33          1           0        4.582054    0.499963    0.263595
     34          1           0        3.876974   -1.642064    1.441638
     35          1           0        4.866821   -0.583772    2.453896
     36          1           0        3.124881   -0.669523    2.717436
     37          6           0       -0.209878    0.973118   -1.341931
     38          6           0       -0.509573    2.410893   -1.014364
     39          6           0        0.066377    3.455765   -1.611966
     40          1           0       -1.041147    0.568389   -1.937758
     41          1           0        0.667913    0.925147   -1.997123
     42          1           0       -1.278482    2.583671   -0.264677
     43          1           0       -0.213167    4.476382   -1.367767
     44          1           0        0.835141    3.329489   -2.371179
 ---------------------------------------------------------------------

 SCF Done:  E(RM062X) =  -1064.33950038     A.U. after   14 cycles

 The electronic state is 1-A.
 Alpha  occ. eigenvalues --  -67.01777 -19.67271 -19.62116 -19.61601 -10.68241
 Alpha  occ. eigenvalues --  -10.62186 -10.60970 -10.55627 -10.55374 -10.55098
 Alpha  occ. eigenvalues --  -10.54927 -10.54104 -10.53536 -10.52828 -10.52721
 Alpha  occ. eigenvalues --  -10.51278 -10.51058 -10.50842  -5.55220  -3.86408
 Alpha  occ. eigenvalues --   -3.86264  -3.86250  -1.22908  -1.14188  -1.13450
 Alpha  occ. eigenvalues --   -0.93614  -0.90619  -0.88263  -0.84724  -0.80780
 Alpha  occ. eigenvalues --   -0.79971  -0.78907  -0.77047  -0.76835  -0.73714
 Alpha  occ. eigenvalues --   -0.69196  -0.69179  -0.65066  -0.62042  -0.59302
 Alpha  occ. eigenvalues --   -0.58213  -0.56993  -0.55655  -0.54588  -0.53130
 Alpha  occ. eigenvalues --   -0.51808  -0.50867  -0.50310  -0.49687  -0.49081
 Alpha  occ. eigenvalues --   -0.48105  -0.47549  -0.47467  -0.46743  -0.46142
 Alpha  occ. eigenvalues --   -0.45994  -0.45758  -0.45116  -0.44654  -0.44198
 Alpha  occ. eigenvalues --   -0.43257  -0.42808  -0.42573  -0.41523  -0.41226
 Alpha  occ. eigenvalues --   -0.40736  -0.39424  -0.38581  -0.36763  -0.36548
 Alpha  occ. eigenvalues --   -0.35756  -0.34606  -0.33679  -0.31762
 Alpha virt. eigenvalues --    0.03088   0.03437   0.05047   0.06844   0.06976
 Alpha virt. eigenvalues --    0.07359   0.09099   0.09808   0.10037   0.10234
 Alpha virt. eigenvalues --    0.10449   0.11121   0.11621   0.12301   0.12793

 Mulliken charges:
               1
     1  C   -0.000866
     2  C   -0.202170
     3  C    0.231409
     4  C   -0.411932
     5  C    0.339383
     6  H    0.185018
     7  H    0.194142
     8  H    0.212899
     9  H    0.187247
    10  O   -0.240124
    11  O   -0.371469
    12  C   -0.288591
    13  C   -0.463390
    14  C   -0.500794
    15  O   -0.393836
    16  Si   0.488937
    17  C   -0.594244
    18  C   -0.564476
    19  C   -0.592018
    20  H    0.156676
    21  H    0.157600
    22  H    0.154788
    23  H    0.168968
    24  H    0.166916
    25  H    0.167331
    26  H    0.167561
    27  H    0.173700
    28  H    0.172019
    29  H    0.173345
    30  H    0.174398
    31  H    0.168060
    32  H    0.168521
    33  H    0.159727
    34  H    0.158973
    35  H    0.155880
    36  H    0.148497
    37  C   -0.406618
    38  C   -0.144486
    39  C   -0.334171
    40  H    0.194236
    41  H    0.200526
    42  H    0.189268
    43  H    0.149338
    44  H    0.143820
 Sum of Mulliken charges =   0.00000

 Dipole moment (field-independent basis, Debye):
    X=             -2.6807    Y=              3.4039    Z=              2.9304  Tot=              5.2307
 Quadrupole moment (field-independent basis, Debye-Ang):
   XX=           -119.0309   YY=           -126.1926   ZZ=           -126.5661
   XY=             12.3830   XZ=             10.1728   YZ=             -9.0906

 1\1\GINC-CPU-E-31\SP\RM062X\def2TZVP\C14H26O3Si1\KE291\26-Jun-2019\0\\
 # m062x/def2tzvp int=ultrafine scrf=(solvent=chloroform)\\IP1_1ginp011
 \\0,1\C,0,2.466611,0.389048,0.070247\C,0,1.134383,0.325576,0.825763\C,
 0,-0.027489,-0.009585,-0.152912\C,0,0.302249,-1.404543,-0.715606\C,0,1
 .706875,-1.56735,-1.2682\H,0,2.455583,1.265143,-0.589595\H,0,1.168014,
 -0.531063,1.510757\H,0,0.196515,-2.136783,0.093825\H,0,-0.385023,-1.70
 4845,-1.508693\O,0,2.685465,-0.759305,-0.812743\O,0,1.990992,-2.431668
 ,-2.071639\C,0,3.723711,0.472626,0.944033\C,0,3.901676,-0.671686,1.946

 Normal termination of Gaussian 09 at Wed Jun 26 13:55:13 2019.
