 Gaussian 09, Revision D.01,
 Gaussian 09:  ES64L-G09RevD.01 24-Apr-2013

 --------------------------------------------------------
 # m062x/def2tzvp int=ultrafine scrf=(solvent=chloroform)
 --------------------------------------------------------

 ------------
 IP1_1ginp016
 ------------
 Symbolic Z-matrix:
 Charge =  0 Multiplicity = 1

                         Standard orientation:
 ---------------------------------------------------------------------
 Center     Atomic      Atomic             Coordinates (Angstroms)
 Number     Number       Type             X           Y           Z
 ---------------------------------------------------------------------
      1          6           0       -2.306414    0.027096   -0.403378
      2          6           0       -0.826398    0.062513   -0.808749
      3          6           0        0.057789    0.438869    0.415079
      4          6           0       -0.163332   -0.677351    1.450933
      5          6           0       -1.617868   -0.965644    1.777066
      6          1           0       -2.638420    1.053661   -0.206053
      7          1           0       -0.522389   -0.957861   -1.074056
      8          1           0        0.247360   -1.618916    1.067059
      9          1           0        0.347309   -0.465462    2.392976
     10          8           0       -2.553820   -0.704240    0.842012
     11          8           0       -1.962505   -1.474489    2.823188
     12          6           0       -3.265052   -0.588932   -1.429403
     13          6           0       -2.951890   -2.032128   -1.835276
     14          6           0       -0.623108    0.939113   -2.052947
     15          8           0        1.423770    0.521034    0.022901
     16         14           0        2.698504   -0.556909   -0.199603
     17          6           0        3.370438   -1.162830    1.456293
     18          6           0        2.214790   -2.031960   -1.276002
     19          6           0        4.001594    0.480055   -1.072924
     20          1           0        1.475471   -2.685309   -0.800470
     21          1           0        1.808622   -1.707757   -2.239824
     22          1           0        3.102183   -2.642942   -1.479645
     23          1           0        4.912297   -0.103750   -1.247212
     24          1           0        3.642181    0.838212   -2.043191
     25          1           0        4.274685    1.354265   -0.472831
     26          1           0        3.618744   -0.320241    2.110495
     27          1           0        2.663103   -1.805178    1.989886
     28          1           0        4.287711   -1.742451    1.299540
     29          1           0       -1.075435    1.926661   -1.936300
     30          1           0        0.443417    1.078729   -2.240652
     31          1           0       -1.060169    0.463286   -2.935430
     32          1           0       -3.284156    0.060552   -2.311156
     33          1           0       -4.268897   -0.541902   -0.992873
     34          1           0       -2.888647   -2.681167   -0.956731
     35          1           0       -3.741931   -2.423399   -2.482966
     36          1           0       -2.008990   -2.111666   -2.385581
     37          6           0       -0.274871    1.797787    1.091761
     38          6           0       -0.039522    3.039278    0.276167
     39          6           0       -0.887391    4.066328    0.194954
     40          1           0        0.377394    1.842272    1.975192
     41          1           0       -1.303307    1.790027    1.470289
     42          1           0        0.918343    3.089851   -0.237562
     43          1           0       -0.647007    4.958978   -0.375204
     44          1           0       -1.850691    4.056632    0.700486
 ---------------------------------------------------------------------

 SCF Done:  E(RM062X) =  -1064.33933228     A.U. after   14 cycles

 The electronic state is 1-A.
 Alpha  occ. eigenvalues --  -67.01798 -19.67371 -19.62074 -19.61758 -10.68405
 Alpha  occ. eigenvalues --  -10.62179 -10.61129 -10.55941 -10.55585 -10.54630
 Alpha  occ. eigenvalues --  -10.54566 -10.54205 -10.53220 -10.53035 -10.52838
 Alpha  occ. eigenvalues --  -10.51401 -10.51054 -10.50908  -5.55248  -3.86435
 Alpha  occ. eigenvalues --   -3.86290  -3.86276  -1.23020  -1.14327  -1.13470
 Alpha  occ. eigenvalues --   -0.93632  -0.90648  -0.88110  -0.84911  -0.81048
 Alpha  occ. eigenvalues --   -0.79763  -0.78839  -0.77155  -0.76874  -0.73632
 Alpha  occ. eigenvalues --   -0.69330  -0.69119  -0.64729  -0.62449  -0.59322
 Alpha  occ. eigenvalues --   -0.59003  -0.56600  -0.55654  -0.54431  -0.53305
 Alpha  occ. eigenvalues --   -0.51668  -0.50778  -0.49909  -0.49858  -0.48868
 Alpha  occ. eigenvalues --   -0.48262  -0.47812  -0.47095  -0.46812  -0.46517
 Alpha  occ. eigenvalues --   -0.46103  -0.45766  -0.45180  -0.44648  -0.44283
 Alpha  occ. eigenvalues --   -0.43115  -0.43020  -0.42761  -0.41615  -0.41318
 Alpha  occ. eigenvalues --   -0.40758  -0.39472  -0.38322  -0.37108  -0.36685
 Alpha  occ. eigenvalues --   -0.36053  -0.34365  -0.33628  -0.31545
 Alpha virt. eigenvalues --    0.03239   0.03510   0.04837   0.06623   0.06845
 Alpha virt. eigenvalues --    0.07087   0.09465   0.09686   0.09861   0.10053
 Alpha virt. eigenvalues --    0.10871   0.11378   0.11691   0.12152   0.12595

 Mulliken charges:
               1
     1  C    0.022877
     2  C   -0.251460
     3  C    0.253819
     4  C   -0.453697
     5  C    0.335104
     6  H    0.186233
     7  H    0.204085
     8  H    0.202385
     9  H    0.210908
    10  O   -0.240498
    11  O   -0.369412
    12  C   -0.285699
    13  C   -0.468329
    14  C   -0.488626
    15  O   -0.395221
    16  Si   0.458890
    17  C   -0.555835
    18  C   -0.579546
    19  C   -0.573816
    20  H    0.165113
    21  H    0.166943
    22  H    0.174566
    23  H    0.155733
    24  H    0.156887
    25  H    0.159864
    26  H    0.165397
    27  H    0.162960
    28  H    0.162611
    29  H    0.177165
    30  H    0.170147
    31  H    0.170637
    32  H    0.168761
    33  H    0.160301
    34  H    0.158869
    35  H    0.158021
    36  H    0.146661
    37  C   -0.349870
    38  C   -0.131749
    39  C   -0.332691
    40  H    0.174215
    41  H    0.188775
    42  H    0.168141
    43  H    0.147894
    44  H    0.142488
 Sum of Mulliken charges =   0.00000

 Dipole moment (field-independent basis, Debye):
    X=              2.5027    Y=              1.1490    Z=             -4.5386  Tot=              5.3087
 Quadrupole moment (field-independent basis, Debye-Ang):
   XX=           -120.6667   YY=           -121.9755   ZZ=           -130.5282
   XY=             -9.4816   XZ=             12.4227   YZ=              7.3925

 1\1\GINC-CPU-E-31\SP\RM062X\def2TZVP\C14H26O3Si1\KE291\26-Jun-2019\0\\
 # m062x/def2tzvp int=ultrafine scrf=(solvent=chloroform)\\IP1_1ginp016
 \\0,1\C,0,-2.306414,0.027096,-0.403378\C,0,-0.826398,0.062513,-0.80874
 9\C,0,0.057789,0.438869,0.415079\C,0,-0.163332,-0.677351,1.450933\C,0,
 -1.617868,-0.965644,1.777066\H,0,-2.63842,1.053661,-0.206053\H,0,-0.52
 2389,-0.957861,-1.074056\H,0,0.24736,-1.618916,1.067059\H,0,0.347309,-
 0.465462,2.392976\O,0,-2.55382,-0.70424,0.842012\O,0,-1.962505,-1.4744
 89,2.823188\C,0,-3.265052,-0.588932,-1.429403\C,0,-2.95189,-2.032128,-

 Normal termination of Gaussian 09 at Wed Jun 26 13:55:39 2019.
