 Gaussian 09, Revision D.01,
 Gaussian 09:  ES64L-G09RevD.01 24-Apr-2013

 --------------------------------------------------------
 # m062x/def2tzvp int=ultrafine scrf=(solvent=chloroform)
 --------------------------------------------------------

 ------------
 IP1_1ginp013
 ------------
 Symbolic Z-matrix:
 Charge =  0 Multiplicity = 1

                         Standard orientation:
 ---------------------------------------------------------------------
 Center     Atomic      Atomic             Coordinates (Angstroms)
 Number     Number       Type             X           Y           Z
 ---------------------------------------------------------------------
      1          6           0        2.438045   -0.423690    0.252018
      2          6           0        0.982075   -0.798640    0.640176
      3          6           0       -0.025845    0.363446    0.410580
      4          6           0        0.191098    0.866569   -1.024728
      5          6           0        1.597303    1.377775   -1.251111
      6          1           0        2.997404   -0.186554    1.163494
      7          1           0        0.651881   -1.587406   -0.048179
      8          1           0        0.015180    0.047868   -1.733352
      9          1           0       -0.490730    1.679323   -1.277232
     10          8           0        2.588587    0.799352   -0.542242
     11          8           0        1.868871    2.284291   -2.009676
     12          6           0        3.188429   -1.508913   -0.533613
     13          6           0        3.402197   -2.832097    0.207552
     14          6           0        0.924140   -1.367033    2.066675
     15          8           0       -1.349196   -0.128029    0.603007
     16         14           0       -2.530678   -0.876263   -0.332816
     17          6           0       -3.822723   -1.399865    0.929503
     18          6           0       -3.289405    0.330995   -1.568516
     19          6           0       -1.879276   -2.397799   -1.243691
     20          1           0       -3.622051    1.247367   -1.069506
     21          1           0       -2.592822    0.615424   -2.363311
     22          1           0       -4.165445   -0.123378   -2.046105
     23          1           0       -2.707551   -2.893881   -1.763655
     24          1           0       -1.124043   -2.156462   -1.999014
     25          1           0       -1.443482   -3.125604   -0.550983
     26          1           0       -4.672452   -1.886333    0.437631
     27          1           0       -3.403704   -2.107334    1.652564
     28          1           0       -4.206685   -0.538838    1.486272
     29          1           0        1.501972   -2.290107    2.149926
     30          1           0        1.327754   -0.661235    2.799193
     31          1           0       -0.110090   -1.588942    2.340341
     32          1           0        4.160019   -1.086852   -0.812240
     33          1           0        2.646170   -1.690130   -1.470677
     34          1           0        4.027855   -3.498880   -0.393063
     35          1           0        3.908318   -2.678289    1.166744
     36          1           0        2.461063   -3.354920    0.401250
     37          6           0        0.154077    1.514541    1.436945
     38          6           0       -0.761151    2.686743    1.210479
     39          6           0       -0.356786    3.941750    1.007967
     40          1           0        1.196685    1.850634    1.436481
     41          1           0       -0.050592    1.091293    2.426880
     42          1           0       -1.826769    2.464296    1.229951
     43          1           0       -1.065340    4.752408    0.864364
     44          1           0        0.697782    4.206604    0.981518
 ---------------------------------------------------------------------

 SCF Done:  E(RM062X) =  -1064.33789043     A.U. after   14 cycles

 The electronic state is 1-A.
 Alpha  occ. eigenvalues --  -67.01761 -19.67252 -19.62042 -19.61717 -10.68214
 Alpha  occ. eigenvalues --  -10.62158 -10.61285 -10.55785 -10.55674 -10.54411
 Alpha  occ. eigenvalues --  -10.54340 -10.54282 -10.53305 -10.53227 -10.53206
 Alpha  occ. eigenvalues --  -10.51376 -10.51039 -10.50870  -5.55209  -3.86396
 Alpha  occ. eigenvalues --   -3.86253  -3.86239  -1.22938  -1.14244  -1.13431
 Alpha  occ. eigenvalues --   -0.93453  -0.90811  -0.87736  -0.85141  -0.80995
 Alpha  occ. eigenvalues --   -0.79682  -0.79225  -0.77130  -0.76849  -0.73251
 Alpha  occ. eigenvalues --   -0.69789  -0.68920  -0.64439  -0.62043  -0.59779
 Alpha  occ. eigenvalues --   -0.58482  -0.56688  -0.55574  -0.54393  -0.53708
 Alpha  occ. eigenvalues --   -0.51860  -0.51087  -0.49946  -0.49793  -0.48289
 Alpha  occ. eigenvalues --   -0.48032  -0.47655  -0.47386  -0.46783  -0.46627
 Alpha  occ. eigenvalues --   -0.45824  -0.45466  -0.45080  -0.44625  -0.44417
 Alpha  occ. eigenvalues --   -0.43718  -0.43208  -0.42928  -0.41296  -0.41123
 Alpha  occ. eigenvalues --   -0.40888  -0.39217  -0.38670  -0.37284  -0.36197
 Alpha  occ. eigenvalues --   -0.35999  -0.34320  -0.33535  -0.31796
 Alpha virt. eigenvalues --    0.03482   0.03975   0.04711   0.06539   0.06856
 Alpha virt. eigenvalues --    0.07745   0.08401   0.09405   0.09757   0.09856
 Alpha virt. eigenvalues --    0.10736   0.11427   0.11693   0.12265   0.12382

 Mulliken charges:
               1
     1  C   -0.001368
     2  C   -0.253029
     3  C    0.282272
     4  C   -0.462731
     5  C    0.340012
     6  H    0.182644
     7  H    0.198618
     8  H    0.206180
     9  H    0.215011
    10  O   -0.245901
    11  O   -0.363897
    12  C   -0.246431
    13  C   -0.482831
    14  C   -0.483528
    15  O   -0.393956
    16  Si   0.472946
    17  C   -0.571089
    18  C   -0.562676
    19  C   -0.588757
    20  H    0.166509
    21  H    0.164938
    22  H    0.164564
    23  H    0.173649
    24  H    0.162741
    25  H    0.167309
    26  H    0.154136
    27  H    0.156322
    28  H    0.158968
    29  H    0.169477
    30  H    0.172271
    31  H    0.169538
    32  H    0.157522
    33  H    0.150019
    34  H    0.161511
    35  H    0.164441
    36  H    0.151221
    37  C   -0.382287
    38  C   -0.145209
    39  C   -0.312976
    40  H    0.198590
    41  H    0.184786
    42  H    0.159672
    43  H    0.146247
    44  H    0.144553
 Sum of Mulliken charges =   0.00000

 Dipole moment (field-independent basis, Debye):
    X=             -1.8431    Y=             -5.0816    Z=              2.1709  Tot=              5.8251
 Quadrupole moment (field-independent basis, Debye-Ang):
   XX=           -119.1835   YY=           -125.1226   ZZ=           -125.9190
   XY=            -10.6490   XZ=             10.5492   YZ=              8.5602

 1\1\GINC-CPU-E-31\SP\RM062X\def2TZVP\C14H26O3Si1\KE291\26-Jun-2019\0\\
 # m062x/def2tzvp int=ultrafine scrf=(solvent=chloroform)\\IP1_1ginp013
 \\0,1\C,0,2.438045,-0.42369,0.252018\C,0,0.982075,-0.79864,0.640176\C,
 0,-0.025845,0.363446,0.41058\C,0,0.191098,0.866569,-1.024728\C,0,1.597
 303,1.377775,-1.251111\H,0,2.997404,-0.186554,1.163494\H,0,0.651881,-1
 .587406,-0.048179\H,0,0.01518,0.047868,-1.733352\H,0,-0.49073,1.679323
 ,-1.277232\O,0,2.588587,0.799352,-0.542242\O,0,1.868871,2.284291,-2.00
 9676\C,0,3.188429,-1.508913,-0.533613\C,0,3.402197,-2.832097,0.207552\

 Normal termination of Gaussian 09 at Wed Jun 26 13:55:34 2019.
