 Gaussian 09, Revision D.01,
 Gaussian 09:  ES64L-G09RevD.01 24-Apr-2013

 --------------------------------------------------------
 # m062x/def2tzvp int=ultrafine scrf=(solvent=chloroform)
 --------------------------------------------------------

 ------------
 IP1_2ginp018
 ------------
 Symbolic Z-matrix:
 Charge =  0 Multiplicity = 1

                         Standard orientation:
 ---------------------------------------------------------------------
 Center     Atomic      Atomic             Coordinates (Angstroms)
 Number     Number       Type             X           Y           Z
 ---------------------------------------------------------------------
      1          6           0       -2.313998   -0.552404   -0.369095
      2          6           0       -0.840825   -0.935031   -0.590670
      3          6           0        0.097988    0.290148   -0.398469
      4          6           0       -0.130545    0.811491    1.027090
      5          6           0       -1.581536    1.071038    1.381537
      6          1           0       -2.674791    0.000141   -1.246345
      7          1           0       -0.558266   -1.648618    0.195155
      8          1           0        0.223982    0.066591    1.749808
      9          1           0        0.419544    1.735372    1.213401
     10          8           0       -2.536917    0.350884    0.759485
     11          8           0       -1.914128    1.859363    2.241741
     12          6           0       -3.233860   -1.751649   -0.126581
     13          6           0       -4.713886   -1.378203    0.000131
     14          6           0       -0.659989   -1.630908   -1.948787
     15          8           0        1.449724   -0.114270   -0.597113
     16         14           0        2.676561   -0.786732    0.338523
     17          6           0        3.983534   -1.259518   -0.928856
     18          6           0        3.379736    0.479713    1.547107
     19          6           0        2.109621   -2.325308    1.276576
     20          1           0        4.270915    0.074127    2.040350
     21          1           0        3.677269    1.395936    1.026144
     22          1           0        2.667770    0.756392    2.330905
     23          1           0        2.965619   -2.771753    1.796404
     24          1           0        1.348739   -2.111051    2.034382
     25          1           0        1.705147   -3.083219    0.597392
     26          1           0        4.863876   -1.690941   -0.439484
     27          1           0        3.597467   -1.999709   -1.637392
     28          1           0        4.313800   -0.387066   -1.502116
     29          1           0        0.403314   -1.740304   -2.170908
     30          1           0       -1.107538   -2.627709   -1.946213
     31          1           0       -1.120843   -1.063138   -2.763695
     32          1           0       -2.893670   -2.267616    0.780083
     33          1           0       -3.105097   -2.453570   -0.957106
     34          1           0       -4.878964   -0.696844    0.838202
     35          1           0       -5.075972   -0.887300   -0.910205
     36          1           0       -5.323560   -2.272247    0.161621
     37          6           0       -0.172125    1.407835   -1.442443
     38          6           0        0.738933    2.598166   -1.313391
     39          6           0        0.330335    3.850138   -1.100351
     40          1           0       -1.214432    1.738291   -1.372042
     41          1           0       -0.038804    0.963423   -2.436008
     42          1           0        1.802427    2.391036   -1.415229
     43          1           0        1.033738    4.674742   -1.029252
     44          1           0       -0.723259    4.098427   -0.992872
 ---------------------------------------------------------------------

 SCF Done:  E(RM062X) =  -1064.34100129     A.U. after   14 cycles

 The electronic state is 1-A.
 Alpha  occ. eigenvalues --  -67.01751 -19.67305 -19.62013 -19.61655 -10.68318
 Alpha  occ. eigenvalues --  -10.62104 -10.61193 -10.55732 -10.55688 -10.54504
 Alpha  occ. eigenvalues --  -10.54460 -10.54232 -10.53343 -10.53306 -10.52556
 Alpha  occ. eigenvalues --  -10.51354 -10.51018 -10.50887  -5.55201  -3.86388
 Alpha  occ. eigenvalues --   -3.86246  -3.86230  -1.22984  -1.14256  -1.13425
 Alpha  occ. eigenvalues --   -0.93619  -0.90832  -0.87927  -0.85041  -0.81036
 Alpha  occ. eigenvalues --   -0.79423  -0.78896  -0.77115  -0.76849  -0.73164
 Alpha  occ. eigenvalues --   -0.70491  -0.68402  -0.64800  -0.62476  -0.60041
 Alpha  occ. eigenvalues --   -0.57983  -0.55910  -0.55677  -0.54681  -0.54019
 Alpha  occ. eigenvalues --   -0.51565  -0.51057  -0.50266  -0.49787  -0.48702
 Alpha  occ. eigenvalues --   -0.47873  -0.47559  -0.47348  -0.46847  -0.46593
 Alpha  occ. eigenvalues --   -0.45903  -0.45578  -0.44809  -0.44604  -0.43939
 Alpha  occ. eigenvalues --   -0.43438  -0.43168  -0.42250  -0.41807  -0.41001
 Alpha  occ. eigenvalues --   -0.40596  -0.39487  -0.38760  -0.37153  -0.36529
 Alpha  occ. eigenvalues --   -0.36016  -0.34297  -0.33490  -0.31939
 Alpha virt. eigenvalues --    0.03217   0.03828   0.05058   0.06902   0.07123
 Alpha virt. eigenvalues --    0.07660   0.09106   0.09546   0.09785   0.10014
 Alpha virt. eigenvalues --    0.11139   0.11277   0.11570   0.11905   0.12497

 Mulliken charges:
               1
     1  C   -0.036679
     2  C   -0.188382
     3  C    0.286960
     4  C   -0.460595
     5  C    0.344300
     6  H    0.185976
     7  H    0.189892
     8  H    0.200560
     9  H    0.218601
    10  O   -0.243938
    11  O   -0.371128
    12  C   -0.251934
    13  C   -0.441677
    14  C   -0.494719
    15  O   -0.398371
    16  Si   0.457018
    17  C   -0.570660
    18  C   -0.553335
    19  C   -0.581117
    20  H    0.163503
    21  H    0.165513
    22  H    0.163827
    23  H    0.172547
    24  H    0.164555
    25  H    0.166897
    26  H    0.154465
    27  H    0.156145
    28  H    0.158740
    29  H    0.172572
    30  H    0.167729
    31  H    0.167812
    32  H    0.150844
    33  H    0.145506
    34  H    0.158179
    35  H    0.141399
    36  H    0.149804
    37  C   -0.383707
    38  C   -0.143600
    39  C   -0.316681
    40  H    0.194740
    41  H    0.187649
    42  H    0.159812
    43  H    0.146968
    44  H    0.144010
 Sum of Mulliken charges =   0.00000

 Dipole moment (field-independent basis, Debye):
    X=              2.2567    Y=             -4.0845    Z=             -3.0292  Tot=              5.5634
 Quadrupole moment (field-independent basis, Debye-Ang):
   XX=           -120.6730   YY=           -121.3059   ZZ=           -128.0734
   XY=              7.9497   XZ=             12.9291   YZ=             -7.2045

 Normal termination of Gaussian 09 at Wed Jun 26 13:54:39 2019.
