 Gaussian 09, Revision D.01,
 Gaussian 09:  ES64L-G09RevD.01 24-Apr-2013

 --------------------------------------------------------
 # m062x/def2tzvp int=ultrafine scrf=(solvent=chloroform)
 --------------------------------------------------------

 ------------
 IP1_4ginp008
 ------------
 Symbolic Z-matrix:
 Charge =  0 Multiplicity = 1

                         Standard orientation:
 ---------------------------------------------------------------------
 Center     Atomic      Atomic             Coordinates (Angstroms)
 Number     Number       Type             X           Y           Z
 ---------------------------------------------------------------------
      1          6           0       -2.536429    0.143332   -0.044119
      2          6           0       -1.226891    0.349166    0.732484
      3          6           0       -0.021600    0.026633   -0.198490
      4          6           0       -0.154601   -1.446205   -0.624031
      5          6           0       -1.538015   -1.875365   -1.086515
      6          1           0       -2.576402    0.855248   -0.876824
      7          1           0       -1.166515    1.414913    0.976289
      8          1           0        0.545959   -1.708849   -1.421238
      9          1           0        0.084112   -2.088475    0.230462
     10          8           0       -2.616328   -1.185411   -0.655183
     11          8           0       -1.712381   -2.864703   -1.766909
     12          6           0       -3.830045    0.296182    0.756391
     13          6           0       -4.045087    1.713124    1.298104
     14          6           0       -1.183618   -0.435131    2.054819
     15          8           0        1.160536    0.250101    0.559397
     16         14           0        2.763214   -0.255568    0.487123
     17          6           0        2.941606   -2.025101    1.120968
     18          6           0        3.496161   -0.147011   -1.249441
     19          6           0        3.653295    0.931804    1.641990
     20          1           0        4.554561   -0.431839   -1.215406
     21          1           0        3.003423   -0.818985   -1.960221
     22          1           0        3.439955    0.870647   -1.648107
     23          1           0        3.247247    0.873793    2.657302
     24          1           0        4.722522    0.698523    1.695379
     25          1           0        3.549931    1.966044    1.298359
     26          1           0        2.490872   -2.758734    0.444825
     27          1           0        4.003369   -2.280206    1.219503
     28          1           0        2.479511   -2.145305    2.106624
     29          1           0       -1.889531   -0.015431    2.776146
     30          1           0       -1.442296   -1.490376    1.922462
     31          1           0       -0.185498   -0.377209    2.490777
     32          1           0       -3.846096   -0.433458    1.572475
     33          1           0       -4.654631    0.030237    0.086037
     34          1           0       -5.017872    1.786958    1.792440
     35          1           0       -3.281921    1.995565    2.030162
     36          1           0       -4.026373    2.455202    0.492104
     37          6           0        0.019455    0.921518   -1.471943
     38          6           0        0.095226    2.404399   -1.231412
     39          6           0        1.060818    3.199403   -1.694787
     40          1           0       -0.862886    0.698297   -2.087006
     41          1           0        0.882500    0.606559   -2.066674
     42          1           0       -0.718258    2.854057   -0.662925
     43          1           0        1.054008    4.270052   -1.512811
     44          1           0        1.889053    2.810335   -2.282405
 ---------------------------------------------------------------------

 SCF Done:  E(RM062X) =  -1064.33976720     A.U. after   14 cycles

 The electronic state is 1-A.
 Alpha  occ. eigenvalues --  -67.01641 -19.67395 -19.61930 -19.61803 -10.68439
 Alpha  occ. eigenvalues --  -10.62207 -10.61072 -10.55914 -10.55511 -10.54960
 Alpha  occ. eigenvalues --  -10.54831 -10.54158 -10.53655 -10.53260 -10.52997
 Alpha  occ. eigenvalues --  -10.51234 -10.50988 -10.50746  -5.55089  -3.86275
 Alpha  occ. eigenvalues --   -3.86132  -3.86120  -1.23008  -1.14362  -1.13409
 Alpha  occ. eigenvalues --   -0.93707  -0.90673  -0.88406  -0.84640  -0.80993
 Alpha  occ. eigenvalues --   -0.80323  -0.78662  -0.76982  -0.76767  -0.73710
 Alpha  occ. eigenvalues --   -0.70096  -0.68581  -0.64796  -0.60957  -0.59537
 Alpha  occ. eigenvalues --   -0.59227  -0.57647  -0.56472  -0.54290  -0.53589
 Alpha  occ. eigenvalues --   -0.52620  -0.50995  -0.50129  -0.49514  -0.48736
 Alpha  occ. eigenvalues --   -0.47829  -0.47676  -0.47424  -0.47150  -0.46115
 Alpha  occ. eigenvalues --   -0.45716  -0.45431  -0.44752  -0.44520  -0.44136
 Alpha  occ. eigenvalues --   -0.43945  -0.42918  -0.42510  -0.42234  -0.41306
 Alpha  occ. eigenvalues --   -0.40754  -0.39378  -0.38425  -0.36728  -0.36647
 Alpha  occ. eigenvalues --   -0.35873  -0.34556  -0.33639  -0.32170
 Alpha virt. eigenvalues --    0.02753   0.03913   0.04965   0.06073   0.07582
 Alpha virt. eigenvalues --    0.08015   0.08655   0.09275   0.09723   0.10301
 Alpha virt. eigenvalues --    0.10382   0.11208   0.11664   0.12456   0.12820

 Mulliken charges:
               1
     1  C   -0.022357
     2  C   -0.191282
     3  C    0.277459
     4  C   -0.505377
     5  C    0.343134
     6  H    0.186635
     7  H    0.203844
     8  H    0.199822
     9  H    0.231214
    10  O   -0.232465
    11  O   -0.367290
    12  C   -0.293978
    13  C   -0.457954
    14  C   -0.516485
    15  O   -0.396771
    16  Si   0.489639
    17  C   -0.584511
    18  C   -0.585524
    19  C   -0.560331
    20  H    0.172663
    21  H    0.165409
    22  H    0.159949
    23  H    0.157485
    24  H    0.153237
    25  H    0.158664
    26  H    0.166099
    27  H    0.165799
    28  H    0.165979
    29  H    0.169426
    30  H    0.173108
    31  H    0.171482
    32  H    0.169397
    33  H    0.159406
    34  H    0.159904
    35  H    0.150791
    36  H    0.151574
    37  C   -0.398470
    38  C   -0.071465
    39  C   -0.349192
    40  H    0.198199
    41  H    0.185133
    42  H    0.156976
    43  H    0.148003
    44  H    0.143023
 Sum of Mulliken charges =   0.00000

 Dipole moment (field-independent basis, Debye):
    X=              1.8467    Y=              3.9636    Z=              2.3839  Tot=              4.9803
 Quadrupole moment (field-independent basis, Debye-Ang):
   XX=           -115.5019   YY=           -131.7021   ZZ=           -124.0108
   XY=            -13.8721   XZ=             -9.5040   YZ=             -9.5359

 Normal termination of Gaussian 09 at Wed Jun 26 13:48:45 2019.
