 Gaussian 09, Revision D.01,
 Gaussian 09:  ES64L-G09RevD.01 24-Apr-2013

 --------------------------------------------------------
 # m062x/def2tzvp int=ultrafine scrf=(solvent=chloroform)
 --------------------------------------------------------

 ------------
 IP1_1ginp006
 ------------
 Symbolic Z-matrix:
 Charge =  0 Multiplicity = 1

                         Standard orientation:
 ---------------------------------------------------------------------
 Center     Atomic      Atomic             Coordinates (Angstroms)
 Number     Number       Type             X           Y           Z
 ---------------------------------------------------------------------
      1          6           0       -2.356733    0.415705    0.118469
      2          6           0       -1.182054    0.203736   -0.853124
      3          6           0        0.126236    0.840953   -0.268684
      4          6           0        0.029576    0.887458    1.284568
      5          6           0       -0.834184   -0.187755    1.896119
      6          1           0       -2.449982    1.481178    0.370862
      7          1           0       -0.997991   -0.875664   -0.859849
      8          1           0        1.018973    0.859848    1.737118
      9          1           0       -0.422659    1.844449    1.573735
     10          8           0       -2.064883   -0.314514    1.351941
     11          8           0       -0.518626   -0.891573    2.834397
     12          6           0       -3.728324   -0.087456   -0.337063
     13          6           0       -3.801644   -1.582960   -0.662666
     14          6           0       -1.492197    0.625125   -2.294953
     15          8           0        1.249373    0.082506   -0.712290
     16         14           0        2.010860   -1.362388   -0.293222
     17          6           0        2.819721   -1.256914    1.407146
     18          6           0        0.837014   -2.841171   -0.324583
     19          6           0        3.319948   -1.560870   -1.629412
     20          1           0        1.410354   -3.756880   -0.135897
     21          1           0        0.062315   -2.781829    0.446562
     22          1           0        0.345950   -2.955775   -1.296782
     23          1           0        3.909102   -2.469567   -1.462157
     24          1           0        2.864988   -1.634871   -2.622627
     25          1           0        4.010998   -0.711572   -1.639074
     26          1           0        3.464121   -0.375552    1.495161
     27          1           0        2.077220   -1.223864    2.210490
     28          1           0        3.445899   -2.142119    1.570595
     29          1           0       -1.820331    1.666681   -2.365477
     30          1           0       -0.604307    0.505647   -2.921694
     31          1           0       -2.279703   -0.000357   -2.721911
     32          1           0       -4.037753    0.510442   -1.201141
     33          1           0       -4.438048    0.144651    0.465167
     34          1           0       -3.161218   -1.854491   -1.507654
     35          1           0       -3.496442   -2.184268    0.197681
     36          1           0       -4.826557   -1.862616   -0.923749
     37          6           0        0.367633    2.283028   -0.788743
     38          6           0        1.551915    2.967962   -0.164887
     39          6           0        1.505695    4.134885    0.479826
     40          1           0       -0.535254    2.883958   -0.627244
     41          1           0        0.527564    2.215570   -1.870355
     42          1           0        2.505853    2.454909   -0.275658
     43          1           0        2.398284    4.591615    0.897417
     44          1           0        0.574057    4.682188    0.607136
 ---------------------------------------------------------------------

 SCF Done:  E(RM062X) =  -1064.34128105     A.U. after   14 cycles

 The electronic state is 1-A.
 Alpha  occ. eigenvalues --  -67.01485 -19.67322 -19.62015 -19.61895 -10.68101
 Alpha  occ. eigenvalues --  -10.62468 -10.61133 -10.55714 -10.55633 -10.54653
 Alpha  occ. eigenvalues --  -10.54469 -10.54365 -10.53552 -10.53491 -10.52744
 Alpha  occ. eigenvalues --  -10.50926 -10.50688 -10.50597  -5.54935  -3.86123
 Alpha  occ. eigenvalues --   -3.85977  -3.85963  -1.23143  -1.14477  -1.13209
 Alpha  occ. eigenvalues --   -0.93493  -0.90767  -0.87798  -0.84866  -0.80865
 Alpha  occ. eigenvalues --   -0.79420  -0.79288  -0.76753  -0.76568  -0.73869
 Alpha  occ. eigenvalues --   -0.69164  -0.68703  -0.64607  -0.62202  -0.60814
 Alpha  occ. eigenvalues --   -0.58246  -0.57344  -0.55380  -0.54562  -0.51988
 Alpha  occ. eigenvalues --   -0.51396  -0.50950  -0.50365  -0.49592  -0.48813
 Alpha  occ. eigenvalues --   -0.48197  -0.47863  -0.47310  -0.47120  -0.46470
 Alpha  occ. eigenvalues --   -0.45766  -0.45245  -0.44717  -0.44261  -0.43977
 Alpha  occ. eigenvalues --   -0.43362  -0.43011  -0.42971  -0.41469  -0.41099
 Alpha  occ. eigenvalues --   -0.40995  -0.40015  -0.38640  -0.37009  -0.36453
 Alpha  occ. eigenvalues --   -0.35538  -0.34210  -0.33368  -0.31996
 Alpha virt. eigenvalues --    0.03221   0.03654   0.04924   0.06156   0.06947
 Alpha virt. eigenvalues --    0.07650   0.08970   0.09798   0.10160   0.10607
 Alpha virt. eigenvalues --    0.11270   0.11508   0.11887   0.12286   0.12613

 Mulliken charges:
               1
     1  C    0.047531
     2  C   -0.225457
     3  C    0.215602
     4  C   -0.470710
     5  C    0.339198
     6  H    0.176317
     7  H    0.198314
     8  H    0.223714
     9  H    0.221489
    10  O   -0.233672
    11  O   -0.365413
    12  C   -0.310550
    13  C   -0.459815
    14  C   -0.506245
    15  O   -0.384237
    16  Si   0.493298
    17  C   -0.582676
    18  C   -0.596303
    19  C   -0.583338
    20  H    0.171223
    21  H    0.179098
    22  H    0.165915
    23  H    0.153223
    24  H    0.155831
    25  H    0.156623
    26  H    0.165600
    27  H    0.172959
    28  H    0.165074
    29  H    0.180019
    30  H    0.177999
    31  H    0.169054
    32  H    0.171309
    33  H    0.159992
    34  H    0.146007
    35  H    0.162602
    36  H    0.156781
    37  C   -0.366935
    38  C   -0.132649
    39  C   -0.320894
    40  H    0.183184
    41  H    0.182053
    42  H    0.161276
    43  H    0.147411
    44  H    0.140200
 Sum of Mulliken charges =   0.00000

 Dipole moment (field-independent basis, Debye):
    X=             -1.0785    Y=              2.5493    Z=             -4.0534  Tot=              4.9084
 Quadrupole moment (field-independent basis, Debye-Ang):
   XX=           -112.8624   YY=           -116.9056   ZZ=           -133.4130
   XY=             -6.0051   XZ=              6.8329   YZ=              8.2719

 Normal termination of Gaussian 09 at Wed Jun 26 14:10:09 2019.
