 Gaussian 09, Revision D.01,
 Gaussian 09:  ES64L-G09RevD.01 24-Apr-2013

 ----------------------------------------------------------------------
 # mPW1PW91/6-311g(d) geom=checkpoint nmr=giao scrf=(solvent=chloroform
 )
 ----------------------------------------------------------------------

 --------------------
 P_ng_correct1ginp013
 --------------------
 Structure from the checkpoint file:  "/home/ke291/rds/hpc-work/06Feb0927IP1/P_ng_correct1ginp013.chk"
 Charge =  0 Multiplicity = 1

                         Standard orientation:
 ---------------------------------------------------------------------
 Center     Atomic      Atomic             Coordinates (Angstroms)
 Number     Number       Type             X           Y           Z
 ---------------------------------------------------------------------
      1          6           0        2.438045   -0.423690    0.252018
      2          6           0        0.982075   -0.798640    0.640176
      3          6           0       -0.025845    0.363446    0.410580
      4          6           0        0.191098    0.866569   -1.024728
      5          6           0        1.597303    1.377775   -1.251111
      6          1           0        2.997404   -0.186554    1.163494
      7          1           0        0.651881   -1.587406   -0.048179
      8          1           0        0.015180    0.047868   -1.733352
      9          1           0       -0.490730    1.679323   -1.277232
     10          8           0        2.588587    0.799352   -0.542242
     11          8           0        1.868871    2.284291   -2.009676
     12          6           0        3.188429   -1.508913   -0.533613
     13          6           0        3.402197   -2.832097    0.207552
     14          6           0        0.924140   -1.367033    2.066675
     15          8           0       -1.349196   -0.128029    0.603007
     16         14           0       -2.530678   -0.876263   -0.332816
     17          6           0       -3.822723   -1.399865    0.929503
     18          6           0       -3.289405    0.330995   -1.568516
     19          6           0       -1.879276   -2.397799   -1.243691
     20          1           0       -3.622051    1.247367   -1.069506
     21          1           0       -2.592822    0.615424   -2.363311
     22          1           0       -4.165445   -0.123378   -2.046105
     23          1           0       -2.707551   -2.893881   -1.763655
     24          1           0       -1.124043   -2.156462   -1.999014
     25          1           0       -1.443482   -3.125604   -0.550983
     26          1           0       -4.672452   -1.886333    0.437631
     27          1           0       -3.403704   -2.107334    1.652564
     28          1           0       -4.206685   -0.538838    1.486272
     29          1           0        1.501972   -2.290107    2.149926
     30          1           0        1.327754   -0.661235    2.799193
     31          1           0       -0.110090   -1.588942    2.340341
     32          1           0        4.160019   -1.086852   -0.812240
     33          1           0        2.646170   -1.690130   -1.470677
     34          1           0        4.027855   -3.498880   -0.393063
     35          1           0        3.908318   -2.678289    1.166744
     36          1           0        2.461063   -3.354920    0.401250
     37          6           0        0.154077    1.514541    1.436945
     38          6           0       -0.761151    2.686743    1.210479
     39          6           0       -0.356786    3.941750    1.007967
     40          1           0        1.196685    1.850634    1.436481
     41          1           0       -0.050592    1.091293    2.426880
     42          1           0       -1.826769    2.464296    1.229951
     43          1           0       -1.065340    4.752408    0.864364
     44          1           0        0.697782    4.206604    0.981518
 ---------------------------------------------------------------------

 SCF Done:  E(RmPW1PW91) =  -1064.38112759     A.U. after   12 cycles

      1  C    Isotropic =    99.6614   Anisotropy =    57.1739

      2  C    Isotropic =   139.6177   Anisotropy =    21.1430

      3  C    Isotropic =   106.8344   Anisotropy =    54.6819

      4  C    Isotropic =   143.3051   Anisotropy =    28.6781

      5  C    Isotropic =    13.0735   Anisotropy =    86.8747

      6  H    Isotropic =    28.0461   Anisotropy =     2.7828

      7  H    Isotropic =    30.2375   Anisotropy =     4.5675

      8  H    Isotropic =    29.9445   Anisotropy =     4.2082

      9  H    Isotropic =    29.3597   Anisotropy =     3.3050

     10  O    Isotropic =    91.7363   Anisotropy =   191.4928

     11  O    Isotropic =  -108.6738   Anisotropy =   560.2909

     12  C    Isotropic =   151.8164   Anisotropy =    29.3709

     13  C    Isotropic =   176.2145   Anisotropy =    13.5715

     14  C    Isotropic =   173.1853   Anisotropy =    21.9794

     15  O    Isotropic =   247.4316   Anisotropy =    19.8290

     16  Si   Isotropic =   333.6328   Anisotropy =    40.8247

     17  C    Isotropic =   186.7352   Anisotropy =    12.5727

     18  C    Isotropic =   185.3108   Anisotropy =    12.2672

     19  C    Isotropic =   186.0326   Anisotropy =     9.0542

     20  H    Isotropic =    31.8488   Anisotropy =     8.1371

     21  H    Isotropic =    31.9426   Anisotropy =     6.5473

     22  H    Isotropic =    32.2445   Anisotropy =    10.4123

     23  H    Isotropic =    32.1786   Anisotropy =    10.5590

     24  H    Isotropic =    31.9773   Anisotropy =     6.3629

     25  H    Isotropic =    31.9493   Anisotropy =     7.3409

     26  H    Isotropic =    32.3575   Anisotropy =    10.2497

     27  H    Isotropic =    31.9378   Anisotropy =     8.1664

     28  H    Isotropic =    31.8723   Anisotropy =     8.6298

     29  H    Isotropic =    31.0734   Anisotropy =     8.5079

     30  H    Isotropic =    31.2508   Anisotropy =     8.2641

     31  H    Isotropic =    30.5259   Anisotropy =     7.6695

     32  H    Isotropic =    29.9760   Anisotropy =     8.5571

     33  H    Isotropic =    30.5740   Anisotropy =     4.2843

     34  H    Isotropic =    30.9347   Anisotropy =    11.4497

     35  H    Isotropic =    31.1952   Anisotropy =     8.6784

     36  H    Isotropic =    31.1530   Anisotropy =     5.6427

     37  C    Isotropic =   144.7975   Anisotropy =    18.5343

     38  C    Isotropic =    45.8695   Anisotropy =   178.5287

     39  C    Isotropic =    64.8662   Anisotropy =   141.3995

     40  H    Isotropic =    30.1586   Anisotropy =     6.1073

     41  H    Isotropic =    29.4931   Anisotropy =     3.8862

     42  H    Isotropic =    25.7532   Anisotropy =     7.1794

     43  H    Isotropic =    26.7323   Anisotropy =     6.8881

     44  H    Isotropic =    26.8263   Anisotropy =     7.4320

 The electronic state is 1-A.
 Alpha  occ. eigenvalues --  -66.27492 -19.25912 -19.20724 -19.19618 -10.36907
 Alpha  occ. eigenvalues --  -10.31780 -10.30776 -10.25489 -10.25055 -10.23992
 Alpha  occ. eigenvalues --  -10.23865 -10.23834 -10.22837 -10.22677 -10.22562
 Alpha  occ. eigenvalues --  -10.21164 -10.20822 -10.20714  -5.33224  -3.67113
 Alpha  occ. eigenvalues --   -3.66819  -3.66802  -1.13179  -1.04796  -1.04066
 Alpha  occ. eigenvalues --   -0.85770  -0.83274  -0.80320  -0.77880  -0.74134
 Alpha  occ. eigenvalues --   -0.72710  -0.72299  -0.70454  -0.70189  -0.66574
 Alpha  occ. eigenvalues --   -0.63268  -0.62393  -0.58199  -0.55863  -0.53527
 Alpha  occ. eigenvalues --   -0.52592  -0.50434  -0.49576  -0.48726  -0.47410
 Alpha  occ. eigenvalues --   -0.46091  -0.45265  -0.44714  -0.44482  -0.43066
 Alpha  occ. eigenvalues --   -0.42659  -0.42579  -0.42259  -0.41486  -0.41297
 Alpha  occ. eigenvalues --   -0.40827  -0.40410  -0.39987  -0.39769  -0.39274
 Alpha  occ. eigenvalues --   -0.38544  -0.37965  -0.37598  -0.36222  -0.36034
 Alpha  occ. eigenvalues --   -0.35903  -0.34076  -0.33574  -0.32671  -0.30915
 Alpha  occ. eigenvalues --   -0.30542  -0.28871  -0.28232  -0.27069
 Alpha virt. eigenvalues --    0.00595   0.01483   0.03494   0.05497   0.05783
 Alpha virt. eigenvalues --    0.06832   0.06974   0.07553   0.08238   0.08471
 Alpha virt. eigenvalues --    0.09564   0.09834   0.10553   0.10908   0.11419

 Mulliken charges:
               1
     1  C   -0.014443
     2  C   -0.312239
     3  C    0.185813
     4  C   -0.647822
     5  C    0.474181
     6  H    0.244422
     7  H    0.269859
     8  H    0.275605
     9  H    0.286912
    10  O   -0.322100
    11  O   -0.379531
    12  C   -0.442037
    13  C   -0.681815
    14  C   -0.691263
    15  O   -0.634653
    16  Si   1.430777
    17  C   -1.041858
    18  C   -1.063217
    19  C   -1.080540
    20  H    0.245231
    21  H    0.244548
    22  H    0.237415
    23  H    0.244887
    24  H    0.246355
    25  H    0.244374
    26  H    0.232766
    27  H    0.241352
    28  H    0.241256
    29  H    0.248561
    30  H    0.235229
    31  H    0.254636
    32  H    0.242299
    33  H    0.229457
    34  H    0.239748
    35  H    0.232411
    36  H    0.234127
    37  C   -0.495096
    38  C   -0.192099
    39  C   -0.447115
    40  H    0.248859
    41  H    0.262721
    42  H    0.223352
    43  H    0.225217
    44  H    0.223458
 Sum of Mulliken charges =   0.00000

 Dipole moment (field-independent basis, Debye):
    X=             -1.8154    Y=             -4.9149    Z=              1.9419  Tot=              5.5878
 Quadrupole moment (field-independent basis, Debye-Ang):
   XX=           -118.1498   YY=           -123.8876   ZZ=           -124.6213
   XY=             -9.9161   XZ=             10.2299   YZ=              8.1099

 Normal termination of Gaussian 09 at Wed Feb  6 11:21:26 2019.
