 Gaussian 09, Revision D.01,
 Gaussian 09:  EM64L-G09RevD.01 24-Apr-2013

 ----------------------------------------------------------------------
 # mPW1PW91/6-311g(d) geom=checkpoint nmr=giao scrf=(solvent=chloroform
 )
 ----------------------------------------------------------------------

 -------------
 P_ng_2ginp007
 -------------
 Structure from the checkpoint file:  "P_ng_2ginp007.chk"
 Charge =  0 Multiplicity = 1

                         Standard orientation:
 ---------------------------------------------------------------------
 Center     Atomic      Atomic             Coordinates (Angstroms)
 Number     Number       Type             X           Y           Z
 ---------------------------------------------------------------------
      1          6           0        2.402149    0.200303    0.328888
      2          6           0        1.012579    0.323200    0.967920
      3          6           0       -0.093758   -0.069507   -0.053699
      4          6           0        0.171602   -1.545957   -0.398252
      5          6           0        1.595865   -1.864768   -0.813347
      6          1           0        2.527848    0.997633   -0.415196
      7          1           0        0.941282   -0.433930    1.761359
      8          1           0       -0.042369   -2.154273    0.488586
      9          1           0       -0.477306   -1.909090   -1.197702
     10          8           0        2.590556   -1.049639   -0.410321
     11          8           0        1.877328   -2.849995   -1.464078
     12          6           0        3.560740    0.266301    1.326540
     13          6           0        4.942834    0.178489    0.671892
     14          6           0        0.819776    1.695168    1.632356
     15          8           0       -1.334370    0.055692    0.633745
     16         14           0       -2.956014   -0.296547    0.347487
     17          6           0       -3.729048   -0.215017    2.060519
     18          6           0       -3.761220    0.991043   -0.773013
     19          6           0       -3.222128   -2.011012   -0.396572
     20          1           0       -3.645712    2.003087   -0.371190
     21          1           0       -3.352958    0.983692   -1.788629
     22          1           0       -4.835965    0.787778   -0.850500
     23          1           0       -2.861111   -2.085222   -1.427369
     24          1           0       -2.734408   -2.794463    0.191982
     25          1           0       -4.296449   -2.230286   -0.412558
     26          1           0       -3.298132   -0.970055    2.726193
     27          1           0       -3.570684    0.766236    2.519909
     28          1           0       -4.809491   -0.389923    2.008633
     29          1           0        1.427304    1.774324    2.537527
     30          1           0        1.090181    2.517284    0.965715
     31          1           0       -0.225478    1.817630    1.921269
     32          1           0        3.435261   -0.542483    2.057577
     33          1           0        3.480227    1.208120    1.878416
     34          1           0        5.730488    0.242171    1.428644
     35          1           0        5.064886   -0.762549    0.130558
     36          1           0        5.095837    0.998637   -0.038612
     37          6           0       -0.104822    0.751106   -1.372990
     38          6           0       -0.343957    2.232607   -1.266568
     39          6           0        0.352975    3.158831   -1.927490
     40          1           0       -0.901548    0.312006   -1.990593
     41          1           0        0.825466    0.570855   -1.924089
     42          1           0       -1.171406    2.540965   -0.631407
     43          1           0        0.114876    4.215379   -1.847062
     44          1           0        1.183929    2.894954   -2.578145
 ---------------------------------------------------------------------

 SCF Done:  E(RmPW1PW91) =  -1064.38243720     A.U. after   13 cycles

      1  C    Isotropic =   101.1329   Anisotropy =    51.9672

      2  C    Isotropic =   138.0570   Anisotropy =    24.3942

      3  C    Isotropic =   108.1607   Anisotropy =    55.3991

      4  C    Isotropic =   136.5381   Anisotropy =    34.2678

      5  C    Isotropic =    13.6328   Anisotropy =    87.4279

      6  H    Isotropic =    28.0175   Anisotropy =     2.6209

      7  H    Isotropic =    30.2194   Anisotropy =     3.5474

      8  H    Isotropic =    29.6933   Anisotropy =     4.2908

      9  H    Isotropic =    29.5311   Anisotropy =     4.0817

     10  O    Isotropic =    99.0015   Anisotropy =   188.7153

     11  O    Isotropic =  -102.1185   Anisotropy =   558.0365

     12  C    Isotropic =   156.6341   Anisotropy =    23.8110

     13  C    Isotropic =   175.7316   Anisotropy =    21.3365

     14  C    Isotropic =   175.5752   Anisotropy =    14.1335

     15  O    Isotropic =   244.2522   Anisotropy =    29.8570

     16  Si   Isotropic =   333.0354   Anisotropy =    44.0693

     17  C    Isotropic =   186.2227   Anisotropy =    13.0675

     18  C    Isotropic =   184.9766   Anisotropy =    10.9205

     19  C    Isotropic =   184.7834   Anisotropy =     9.1931

     20  H    Isotropic =    31.8087   Anisotropy =     7.7737

     21  H    Isotropic =    31.9080   Anisotropy =     6.5244

     22  H    Isotropic =    32.1961   Anisotropy =    10.2191

     23  H    Isotropic =    31.8538   Anisotropy =     6.7415

     24  H    Isotropic =    31.8702   Anisotropy =     7.3765

     25  H    Isotropic =    32.1721   Anisotropy =    10.3559

     26  H    Isotropic =    31.9682   Anisotropy =     8.2801

     27  H    Isotropic =    31.8545   Anisotropy =     8.1533

     28  H    Isotropic =    32.3353   Anisotropy =    10.2398

     29  H    Isotropic =    31.3544   Anisotropy =    10.0078

     30  H    Isotropic =    31.2233   Anisotropy =     7.4947

     31  H    Isotropic =    30.4433   Anisotropy =     6.6524

     32  H    Isotropic =    30.6439   Anisotropy =     5.7582

     33  H    Isotropic =    30.3024   Anisotropy =     5.6907

     34  H    Isotropic =    31.0130   Anisotropy =    11.4669

     35  H    Isotropic =    30.5084   Anisotropy =     7.8160

     36  H    Isotropic =    31.2059   Anisotropy =     8.9473

     37  C    Isotropic =   141.9657   Anisotropy =    31.6061

     38  C    Isotropic =    43.6497   Anisotropy =   184.3976

     39  C    Isotropic =    68.0073   Anisotropy =   138.7333

     40  H    Isotropic =    29.6324   Anisotropy =     4.1749

     41  H    Isotropic =    29.5550   Anisotropy =     4.7601

     42  H    Isotropic =    25.5750   Anisotropy =     6.6472

     43  H    Isotropic =    26.8835   Anisotropy =     6.9120

     44  H    Isotropic =    26.7988   Anisotropy =     6.9632

 The electronic state is 1-A.
 Alpha  occ. eigenvalues --  -66.27511 -19.25876 -19.20824 -19.19503 -10.36961
 Alpha  occ. eigenvalues --  -10.31823 -10.30490 -10.25195 -10.25058 -10.24603
 Alpha  occ. eigenvalues --  -10.24348 -10.23731 -10.22876 -10.22198 -10.21988
 Alpha  occ. eigenvalues --  -10.21005 -10.20874 -10.20677  -5.33236  -3.67127
 Alpha  occ. eigenvalues --   -3.66828  -3.66815  -1.13155  -1.04745  -1.04107
 Alpha  occ. eigenvalues --   -0.85888  -0.83117  -0.80864  -0.77662  -0.73958
 Alpha  occ. eigenvalues --   -0.72804  -0.71664  -0.70342  -0.70175  -0.66656
 Alpha  occ. eigenvalues --   -0.63687  -0.61941  -0.58872  -0.56284  -0.53089
 Alpha  occ. eigenvalues --   -0.52404  -0.50633  -0.48988  -0.48298  -0.47090
 Alpha  occ. eigenvalues --   -0.46704  -0.45374  -0.44695  -0.44172  -0.43824
 Alpha  occ. eigenvalues --   -0.42804  -0.42533  -0.41682  -0.41619  -0.41122
 Alpha  occ. eigenvalues --   -0.40911  -0.40514  -0.40014  -0.39769  -0.38784
 Alpha  occ. eigenvalues --   -0.38448  -0.37953  -0.36973  -0.36513  -0.35919
 Alpha  occ. eigenvalues --   -0.35484  -0.34352  -0.33458  -0.32156  -0.31043
 Alpha  occ. eigenvalues --   -0.30211  -0.29665  -0.28149  -0.27014
 Alpha virt. eigenvalues --    0.00560   0.00854   0.03789   0.05898   0.05926
 Alpha virt. eigenvalues --    0.06511   0.07391   0.07822   0.08217   0.09051
 Alpha virt. eigenvalues --    0.09491   0.09928   0.10460   0.10735   0.11110

 Mulliken charges:
               1
     1  C   -0.032250
     2  C   -0.282089
     3  C    0.188816
     4  C   -0.626960
     5  C    0.483390
     6  H    0.247221
     7  H    0.243635
     8  H    0.288890
     9  H    0.272755
    10  O   -0.328852
    11  O   -0.384964
    12  C   -0.441773
    13  C   -0.663294
    14  C   -0.695057
    15  O   -0.629907
    16  Si   1.397317
    17  C   -1.038892
    18  C   -1.064478
    19  C   -1.068906
    20  H    0.245092
    21  H    0.250065
    22  H    0.241186
    23  H    0.245633
    24  H    0.248597
    25  H    0.242929
    26  H    0.239849
    27  H    0.240919
    28  H    0.231978
    29  H    0.239067
    30  H    0.242371
    31  H    0.260565
    32  H    0.228494
    33  H    0.243676
    34  H    0.228955
    35  H    0.240422
    36  H    0.221951
    37  C   -0.509672
    38  C   -0.175011
    39  C   -0.456423
    40  H    0.255142
    41  H    0.250964
    42  H    0.230100
    43  H    0.226627
    44  H    0.221920
 Sum of Mulliken charges =   0.00000

 Dipole moment (field-independent basis, Debye):
    X=             -2.7074    Y=              3.5868    Z=              2.0659  Tot=              4.9460
 Quadrupole moment (field-independent basis, Debye-Ang):
   XX=           -117.8693   YY=           -128.7172   ZZ=           -121.3841
   XY=             12.7485   XZ=              7.5047   YZ=             -7.6966

 Normal termination of Gaussian 09 at Wed Feb  6 14:33:08 2019.
