 Gaussian 09, Revision D.01,
 Gaussian 09:  EM64L-G09RevD.01 24-Apr-2013

 ----------------------------------------------------------------------
 # mPW1PW91/6-311g(d) geom=checkpoint nmr=giao scrf=(solvent=chloroform
 )
 ----------------------------------------------------------------------

 --------------------
 P_ng_correct1ginp018
 --------------------
 Structure from the checkpoint file:  "P_ng_correct1ginp018.chk"
 Charge =  0 Multiplicity = 1

                         Standard orientation:
 ---------------------------------------------------------------------
 Center     Atomic      Atomic             Coordinates (Angstroms)
 Number     Number       Type             X           Y           Z
 ---------------------------------------------------------------------
      1          6           0       -2.313951   -0.552500   -0.369122
      2          6           0       -0.840754   -0.935057   -0.590617
      3          6           0        0.098001    0.290150   -0.398412
      4          6           0       -0.130677    0.811571    1.027106
      5          6           0       -1.581675    1.071067    1.381474
      6          1           0       -2.674737    0.000072   -1.246358
      7          1           0       -0.558186   -1.648609    0.195239
      8          1           0        0.223852    0.066715    1.749870
      9          1           0        0.419408    1.735462    1.213379
     10          8           0       -2.536973    0.350707    0.759517
     11          8           0       -1.914374    1.859442    2.241591
     12          6           0       -3.233771   -1.751797   -0.126734
     13          6           0       -4.713797   -1.378433    0.000239
     14          6           0       -0.659816   -1.630995   -1.948702
     15          8           0        1.449741   -0.114221   -0.596795
     16         14           0        2.676742   -0.786648    0.338576
     17          6           0        3.983486   -1.259402   -0.929037
     18          6           0        3.379930    0.479863    1.547070
     19          6           0        2.109806   -2.325235    1.276609
     20          1           0        4.271120    0.074319    2.040346
     21          1           0        3.677468    1.396072    1.026091
     22          1           0        2.667964    0.756534    2.330870
     23          1           0        1.348444   -2.111085    2.033958
     24          1           0        1.705825   -3.083224    0.597202
     25          1           0        2.965557   -2.771575    1.796927
     26          1           0        4.314253   -0.386756   -1.501714
     27          1           0        4.863573   -1.691741   -0.440029
     28          1           0        3.596883   -1.998832   -1.638080
     29          1           0       -1.107199   -2.627869   -1.946068
     30          1           0       -1.120758   -1.063353   -2.763649
     31          1           0        0.403508   -1.740245   -2.170815
     32          1           0       -2.893481   -2.268000    0.779758
     33          1           0       -3.105098   -2.453502   -0.957456
     34          1           0       -5.323420   -2.272575    0.161380
     35          1           0       -4.878851   -0.697438    0.838610
     36          1           0       -5.075970   -0.887150   -0.909858
     37          6           0       -0.172099    1.407768   -1.442464
     38          6           0        0.738727    2.598247   -1.313349
     39          6           0        0.329877    3.850168   -1.100468
     40          1           0       -1.214472    1.738057   -1.372220
     41          1           0       -0.038577    0.963332   -2.435992
     42          1           0        1.802283    2.391350   -1.415018
     43          1           0        1.033125    4.674902   -1.029338
     44          1           0       -0.723773    4.098294   -0.993158
 ---------------------------------------------------------------------

 SCF Done:  E(RmPW1PW91) =  -1064.38514186     A.U. after   12 cycles

      1  C    Isotropic =   100.1393   Anisotropy =    50.2270

      2  C    Isotropic =   140.4630   Anisotropy =    22.6075

      3  C    Isotropic =   107.8188   Anisotropy =    55.4130

      4  C    Isotropic =   142.9991   Anisotropy =    31.2243

      5  C    Isotropic =    13.8835   Anisotropy =    86.6986

      6  H    Isotropic =    28.1593   Anisotropy =     2.1093

      7  H    Isotropic =    30.2629   Anisotropy =     4.8424

      8  H    Isotropic =    29.8789   Anisotropy =     5.1612

      9  H    Isotropic =    29.2488   Anisotropy =     3.3809

     10  O    Isotropic =   100.0528   Anisotropy =   189.8314

     11  O    Isotropic =  -104.3989   Anisotropy =   558.7618

     12  C    Isotropic =   156.0751   Anisotropy =    24.8835

     13  C    Isotropic =   175.5923   Anisotropy =    21.9313

     14  C    Isotropic =   176.6546   Anisotropy =    19.3291

     15  O    Isotropic =   248.6050   Anisotropy =    23.3727

     16  Si   Isotropic =   333.4902   Anisotropy =    40.6030

     17  C    Isotropic =   186.9259   Anisotropy =    12.2557

     18  C    Isotropic =   185.3925   Anisotropy =    12.2419

     19  C    Isotropic =   186.0341   Anisotropy =     9.3282

     20  H    Isotropic =    32.2590   Anisotropy =    10.4545

     21  H    Isotropic =    31.8734   Anisotropy =     8.1178

     22  H    Isotropic =    31.9429   Anisotropy =     6.6100

     23  H    Isotropic =    31.9839   Anisotropy =     6.3482

     24  H    Isotropic =    31.9594   Anisotropy =     7.2553

     25  H    Isotropic =    32.1920   Anisotropy =    10.6457

     26  H    Isotropic =    31.8843   Anisotropy =     8.5952

     27  H    Isotropic =    32.3501   Anisotropy =    10.3015

     28  H    Isotropic =    31.9377   Anisotropy =     8.1710

     29  H    Isotropic =    31.2257   Anisotropy =     9.5012

     30  H    Isotropic =    31.5123   Anisotropy =     8.6005

     31  H    Isotropic =    30.4727   Anisotropy =     7.3949

     32  H    Isotropic =    30.6385   Anisotropy =     5.0472

     33  H    Isotropic =    30.3219   Anisotropy =     5.5957

     34  H    Isotropic =    31.0076   Anisotropy =    11.4026

     35  H    Isotropic =    30.5073   Anisotropy =     7.8729

     36  H    Isotropic =    31.1918   Anisotropy =     9.2701

     37  C    Isotropic =   146.1402   Anisotropy =    15.8468

     38  C    Isotropic =    45.7180   Anisotropy =   178.8131

     39  C    Isotropic =    64.8776   Anisotropy =   140.9328

     40  H    Isotropic =    30.2251   Anisotropy =     5.9547

     41  H    Isotropic =    29.5549   Anisotropy =     4.0159

     42  H    Isotropic =    25.7422   Anisotropy =     7.1995

     43  H    Isotropic =    26.6993   Anisotropy =     6.8470

     44  H    Isotropic =    26.7978   Anisotropy =     7.3729

 The electronic state is 1-A.
 Alpha  occ. eigenvalues --  -66.27489 -19.25922 -19.20715 -19.19560 -10.37001
 Alpha  occ. eigenvalues --  -10.31737 -10.30698 -10.25457 -10.25085 -10.24054
 Alpha  occ. eigenvalues --  -10.23953 -10.23898 -10.22810 -10.22677 -10.22090
 Alpha  occ. eigenvalues --  -10.21148 -10.20806 -10.20735  -5.33223  -3.67111
 Alpha  occ. eigenvalues --   -3.66817  -3.66800  -1.13202  -1.04801  -1.04071
 Alpha  occ. eigenvalues --   -0.85947  -0.83297  -0.80512  -0.77790  -0.74168
 Alpha  occ. eigenvalues --   -0.72494  -0.71964  -0.70443  -0.70192  -0.66500
 Alpha  occ. eigenvalues --   -0.63941  -0.61927  -0.58541  -0.56291  -0.53760
 Alpha  occ. eigenvalues --   -0.52098  -0.49999  -0.49308  -0.48933  -0.47690
 Alpha  occ. eigenvalues --   -0.46209  -0.45155  -0.44954  -0.44329  -0.43550
 Alpha  occ. eigenvalues --   -0.42723  -0.42438  -0.42076  -0.41412  -0.41393
 Alpha  occ. eigenvalues --   -0.40879  -0.40579  -0.39769  -0.39569  -0.38701
 Alpha  occ. eigenvalues --   -0.38432  -0.37900  -0.37161  -0.36555  -0.36122
 Alpha  occ. eigenvalues --   -0.35667  -0.34245  -0.33634  -0.32583  -0.31029
 Alpha  occ. eigenvalues --   -0.30696  -0.28808  -0.28231  -0.27213
 Alpha virt. eigenvalues --    0.00398   0.01348   0.03796   0.05859   0.05956
 Alpha virt. eigenvalues --    0.06677   0.07668   0.07866   0.08050   0.08877
 Alpha virt. eigenvalues --    0.09736   0.09839   0.10124   0.10624   0.11186

 Mulliken charges:
               1
     1  C   -0.027888
     2  C   -0.302444
     3  C    0.184283
     4  C   -0.630539
     5  C    0.474140
     6  H    0.244538
     7  H    0.255915
     8  H    0.276335
     9  H    0.287268
    10  O   -0.329436
    11  O   -0.382723
    12  C   -0.438787
    13  C   -0.664217
    14  C   -0.685676
    15  O   -0.638235
    16  Si   1.430949
    17  C   -1.044613
    18  C   -1.060720
    19  C   -1.077646
    20  H    0.236596
    21  H    0.244089
    22  H    0.245901
    23  H    0.247563
    24  H    0.245301
    25  H    0.243666
    26  H    0.241026
    27  H    0.233017
    28  H    0.241523
    29  H    0.242028
    30  H    0.232433
    31  H    0.261796
    32  H    0.229398
    33  H    0.241776
    34  H    0.229372
    35  H    0.240854
    36  H    0.222899
    37  C   -0.494112
    38  C   -0.189814
    39  C   -0.450210
    40  H    0.248669
    41  H    0.261335
    42  H    0.225262
    43  H    0.226007
    44  H    0.223122
 Sum of Mulliken charges =   0.00000

 Dipole moment (field-independent basis, Debye):
    X=              2.2508    Y=             -3.9592    Z=             -2.7847  Tot=              5.3381
 Quadrupole moment (field-independent basis, Debye-Ang):
   XX=           -119.7264   YY=           -120.1537   ZZ=           -126.6164
   XY=              7.4039   XZ=             12.5146   YZ=             -6.8489

 Normal termination of Gaussian 09 at Wed Feb  6 16:30:01 2019.
