 Gaussian 09, Revision D.01,
 Gaussian 09:  ES64L-G09RevD.01 24-Apr-2013

 ----------------------------------------------------------------------
 # mPW1PW91/6-311g(d) geom=checkpoint nmr=giao scrf=(solvent=chloroform
 )
 ----------------------------------------------------------------------

 -------------
 P_ng_2ginp014
 -------------
 Structure from the checkpoint file:  "/home/ke291/rds/hpc-work/06Feb0927IP1/P_ng_2ginp014.chk"
 Charge =  0 Multiplicity = 1

                         Standard orientation:
 ---------------------------------------------------------------------
 Center     Atomic      Atomic             Coordinates (Angstroms)
 Number     Number       Type             X           Y           Z
 ---------------------------------------------------------------------
      1          6           0       -2.307280    0.317971   -0.170330
      2          6           0       -0.972818   -0.051215   -0.841834
      3          6           0        0.180261    0.823128   -0.251662
      4          6           0       -0.124499    1.157304    1.241845
      5          6           0       -1.126960    0.273770    1.946268
      6          1           0       -2.468149    1.403391   -0.229202
      7          1           0       -0.764842   -1.079699   -0.522100
      8          1           0        0.798370    1.165096    1.820792
      9          1           0       -0.535861    2.173155    1.300635
     10          8           0       -2.235519   -0.047242    1.241086
     11          8           0       -1.025131   -0.101711    3.095476
     12          6           0       -3.561139   -0.378594   -0.705480
     13          6           0       -3.541690   -1.908893   -0.628687
     14          6           0       -1.037977   -0.040781   -2.374620
     15          8           0        1.433099    0.153285   -0.362321
     16         14           0        2.056303   -1.377371   -0.040854
     17          6           0        1.305974   -2.174083    1.495617
     18          6           0        1.807524   -2.511607   -1.528900
     19          6           0        3.894877   -1.069957    0.212727
     20          1           0        2.211747   -2.059358   -2.440884
     21          1           0        2.331185   -3.461658   -1.369956
     22          1           0        0.752920   -2.744976   -1.708722
     23          1           0        4.333782   -0.571236   -0.657799
     24          1           0        4.074690   -0.436861    1.087868
     25          1           0        4.432034   -2.012879    0.364159
     26          1           0        1.868306   -3.084608    1.735136
     27          1           0        1.347488   -1.517278    2.369548
     28          1           0        0.261012   -2.467934    1.353560
     29          1           0       -0.045495   -0.213708   -2.798738
     30          1           0       -1.694806   -0.832912   -2.741702
     31          1           0       -1.413077    0.909115   -2.767372
     32          1           0       -3.720425   -0.047159   -1.737210
     33          1           0       -4.410519    0.002413   -0.127235
     34          1           0       -3.384506   -2.245266    0.399498
     35          1           0       -4.496121   -2.316321   -0.974925
     36          1           0       -2.753967   -2.345370   -1.251006
     37          6           0        0.361301    2.152383   -1.034030
     38          6           0        1.387974    3.076544   -0.439337
     39          6           0        1.157682    4.341974   -0.085297
     40          1           0       -0.602701    2.670104   -1.105778
     41          1           0        0.669487    1.889643   -2.051843
     42          1           0        2.383212    2.654823   -0.310958
     43          1           0        1.941714    4.971133    0.325993
     44          1           0        0.177317    4.799232   -0.201413
 ---------------------------------------------------------------------

 SCF Done:  E(RmPW1PW91) =  -1064.38257552     A.U. after   12 cycles

      1  C    Isotropic =   106.7759   Anisotropy =    54.8115

      2  C    Isotropic =   140.3098   Anisotropy =    16.7848

      3  C    Isotropic =   106.0968   Anisotropy =    55.4699

      4  C    Isotropic =   140.4719   Anisotropy =    25.0926

      5  C    Isotropic =     9.6704   Anisotropy =    98.4438

      6  H    Isotropic =    28.0486   Anisotropy =     2.9231

      7  H    Isotropic =    30.2219   Anisotropy =     4.9661

      8  H    Isotropic =    29.8098   Anisotropy =     4.4525

      9  H    Isotropic =    29.4424   Anisotropy =     5.2405

     10  O    Isotropic =    84.9403   Anisotropy =   183.2617

     11  O    Isotropic =  -104.0481   Anisotropy =   571.2647

     12  C    Isotropic =   161.4712   Anisotropy =    19.0634

     13  C    Isotropic =   181.1094   Anisotropy =    12.5315

     14  C    Isotropic =   177.1837   Anisotropy =     9.5278

     15  O    Isotropic =   240.1738   Anisotropy =    13.0561

     16  Si   Isotropic =   333.8444   Anisotropy =    39.1732

     17  C    Isotropic =   186.2398   Anisotropy =     7.8799

     18  C    Isotropic =   185.4356   Anisotropy =    10.8955

     19  C    Isotropic =   186.4221   Anisotropy =    13.3507

     20  H    Isotropic =    31.9220   Anisotropy =     7.9548

     21  H    Isotropic =    32.2611   Anisotropy =    10.3306

     22  H    Isotropic =    31.9753   Anisotropy =     7.2843

     23  H    Isotropic =    31.8951   Anisotropy =     8.4789

     24  H    Isotropic =    31.9568   Anisotropy =     8.4279

     25  H    Isotropic =    32.3624   Anisotropy =    10.2387

     26  H    Isotropic =    32.2272   Anisotropy =    10.5599

     27  H    Isotropic =    31.8518   Anisotropy =     7.5225

     28  H    Isotropic =    32.0587   Anisotropy =     6.9957

     29  H    Isotropic =    30.8455   Anisotropy =     7.2501

     30  H    Isotropic =    31.1731   Anisotropy =     8.3661

     31  H    Isotropic =    31.3706   Anisotropy =     8.6967

     32  H    Isotropic =    30.4990   Anisotropy =     7.1655

     33  H    Isotropic =    30.1655   Anisotropy =     9.9617

     34  H    Isotropic =    30.8022   Anisotropy =     7.5271

     35  H    Isotropic =    31.2137   Anisotropy =    12.0473

     36  H    Isotropic =    31.2432   Anisotropy =     6.1814

     37  C    Isotropic =   140.2594   Anisotropy =    14.4544

     38  C    Isotropic =    44.9450   Anisotropy =   180.7996

     39  C    Isotropic =    65.7159   Anisotropy =   138.9497

     40  H    Isotropic =    30.1694   Anisotropy =     6.5542

     41  H    Isotropic =    29.5518   Anisotropy =     3.5127

     42  H    Isotropic =    25.6535   Anisotropy =     7.6516

     43  H    Isotropic =    26.7109   Anisotropy =     6.8758

     44  H    Isotropic =    26.8088   Anisotropy =     7.3732

 The electronic state is 1-A.
 Alpha  occ. eigenvalues --  -66.27273 -19.25918 -19.20490 -19.19628 -10.36659
 Alpha  occ. eigenvalues --  -10.32072 -10.30700 -10.25690 -10.24922 -10.24066
 Alpha  occ. eigenvalues --  -10.24063 -10.24037 -10.23156 -10.22793 -10.22325
 Alpha  occ. eigenvalues --  -10.20735 -10.20623 -10.20533  -5.33008  -3.66900
 Alpha  occ. eigenvalues --   -3.66599  -3.66586  -1.13296  -1.04896  -1.03877
 Alpha  occ. eigenvalues --   -0.85918  -0.83211  -0.80319  -0.77607  -0.73960
 Alpha  occ. eigenvalues --   -0.72520  -0.72392  -0.70096  -0.70034  -0.67279
 Alpha  occ. eigenvalues --   -0.62739  -0.62337  -0.58470  -0.56157  -0.54153
 Alpha  occ. eigenvalues --   -0.52727  -0.50615  -0.49079  -0.48343  -0.46432
 Alpha  occ. eigenvalues --   -0.45999  -0.45467  -0.44841  -0.44489  -0.43356
 Alpha  occ. eigenvalues --   -0.42750  -0.42503  -0.42141  -0.41952  -0.40840
 Alpha  occ. eigenvalues --   -0.40677  -0.40437  -0.39990  -0.39472  -0.38979
 Alpha  occ. eigenvalues --   -0.38301  -0.38061  -0.37508  -0.36501  -0.36177
 Alpha  occ. eigenvalues --   -0.35674  -0.35124  -0.33373  -0.32500  -0.30971
 Alpha  occ. eigenvalues --   -0.30211  -0.28623  -0.28261  -0.27198
 Alpha virt. eigenvalues --    0.00622   0.01278   0.03691   0.05043   0.05677
 Alpha virt. eigenvalues --    0.06625   0.07709   0.08147   0.08396   0.08962
 Alpha virt. eigenvalues --    0.09347   0.10005   0.10260   0.10885   0.11814

 Mulliken charges:
               1
     1  C   -0.005231
     2  C   -0.389919
     3  C    0.267752
     4  C   -0.663484
     5  C    0.501646
     6  H    0.243745
     7  H    0.260808
     8  H    0.282003
     9  H    0.291183
    10  O   -0.320007
    11  O   -0.384929
    12  C   -0.461402
    13  C   -0.675960
    14  C   -0.707822
    15  O   -0.630975
    16  Si   1.410879
    17  C   -1.082551
    18  C   -1.063671
    19  C   -1.039752
    20  H    0.241979
    21  H    0.237164
    22  H    0.247214
    23  H    0.240232
    24  H    0.239729
    25  H    0.231782
    26  H    0.241675
    27  H    0.253802
    28  H    0.252526
    29  H    0.261502
    30  H    0.248437
    31  H    0.243720
    32  H    0.242115
    33  H    0.243102
    34  H    0.243213
    35  H    0.234617
    36  H    0.227167
    37  C   -0.501058
    38  C   -0.179248
    39  C   -0.452122
    40  H    0.239294
    41  H    0.260914
    42  H    0.224233
    43  H    0.227354
    44  H    0.218343
 Sum of Mulliken charges =   0.00000

 Dipole moment (field-independent basis, Debye):
    X=             -0.2936    Y=              0.7671    Z=             -4.9385  Tot=              5.0063
 Quadrupole moment (field-independent basis, Debye-Ang):
   XX=           -115.2820   YY=           -113.5924   ZZ=           -134.2304
   XY=             -5.1149   XZ=             10.3301   YZ=              3.5133

 Normal termination of Gaussian 09 at Wed Feb  6 11:38:49 2019.
