 Gaussian 09, Revision D.01,
 Gaussian 09:  ES64L-G09RevD.01 24-Apr-2013

 ----------------------------------------------------------------------
 # mPW1PW91/6-311g(d) geom=checkpoint nmr=giao scrf=(solvent=chloroform
 )
 ----------------------------------------------------------------------

 -------------
 P_ng_2ginp001
 -------------
 Structure from the checkpoint file:  "/home/ke291/rds/hpc-work/06Feb0927IP1/P_ng_2ginp001.chk"
 Charge =  0 Multiplicity = 1

                         Standard orientation:
 ---------------------------------------------------------------------
 Center     Atomic      Atomic             Coordinates (Angstroms)
 Number     Number       Type             X           Y           Z
 ---------------------------------------------------------------------
      1          6           0       -2.314229   -0.552391   -0.368994
      2          6           0       -0.841134   -0.935202   -0.590736
      3          6           0        0.097984    0.289727   -0.398498
      4          6           0       -0.130569    0.811133    1.027083
      5          6           0       -1.581442    1.071482    1.381133
      6          1           0       -2.675157   -0.000006   -1.246288
      7          1           0       -0.558583   -1.648957    0.194945
      8          1           0        0.223403    0.065953    1.749799
      9          1           0        0.420057    1.734657    1.213559
     10          8           0       -2.536968    0.351195    0.759415
     11          8           0       -1.913943    1.860496    2.240751
     12          6           0       -3.234096   -1.751561   -0.126072
     13          6           0       -4.714114   -1.378085    0.000678
     14          6           0       -0.660535   -1.630928   -1.948965
     15          8           0        1.449513   -0.115148   -0.597035
     16         14           0        2.676705   -0.786802    0.338620
     17          6           0        3.379208    0.479940    1.547302
     18          6           0        2.110237   -2.325682    1.276453
     19          6           0        3.984036   -1.258649   -0.928748
     20          1           0        2.966027   -2.771445    1.797201
     21          1           0        1.348376   -2.111923    2.033411
     22          1           0        1.707039   -3.083946    0.596892
     23          1           0        4.864372   -1.690437   -0.439742
     24          1           0        3.598044   -1.998116   -1.638082
     25          1           0        4.314198   -0.385575   -1.501145
     26          1           0        3.676400    1.396296    1.026383
     27          1           0        2.667159    0.756275    2.331138
     28          1           0        4.270560    0.074681    2.040513
     29          1           0        0.402736   -1.740968   -2.170936
     30          1           0       -1.108702   -2.627453   -1.946660
     31          1           0       -1.120896   -1.062709   -2.763835
     32          1           0       -2.893830   -2.267278    0.780703
     33          1           0       -3.105419   -2.453711   -0.956419
     34          1           0       -4.879111   -0.696461    0.838550
     35          1           0       -5.076323   -0.887496   -0.909776
     36          1           0       -5.323750   -2.272089    0.162544
     37          6           0       -0.171866    1.407477   -1.442436
     38          6           0        0.739194    2.597793   -1.313171
     39          6           0        0.330583    3.849825   -1.100507
     40          1           0       -1.214187    1.737943   -1.372266
     41          1           0       -0.038336    0.963145   -2.436014
     42          1           0        1.802726    2.390631   -1.414586
     43          1           0        1.034022    4.674390   -1.029305
     44          1           0       -0.723032    4.098199   -0.993443
 ---------------------------------------------------------------------

 SCF Done:  E(RmPW1PW91) =  -1064.38514171     A.U. after   12 cycles

      1  C    Isotropic =   100.1368   Anisotropy =    50.2303

      2  C    Isotropic =   140.4567   Anisotropy =    22.6186

      3  C    Isotropic =   107.8225   Anisotropy =    55.4038

      4  C    Isotropic =   142.9987   Anisotropy =    31.1962

      5  C    Isotropic =    13.8818   Anisotropy =    86.7009

      6  H    Isotropic =    28.1596   Anisotropy =     2.1093

      7  H    Isotropic =    30.2630   Anisotropy =     4.8394

      8  H    Isotropic =    29.8789   Anisotropy =     5.1604

      9  H    Isotropic =    29.2491   Anisotropy =     3.3788

     10  O    Isotropic =   100.0621   Anisotropy =   189.8388

     11  O    Isotropic =  -104.4309   Anisotropy =   558.7673

     12  C    Isotropic =   156.0710   Anisotropy =    24.8911

     13  C    Isotropic =   175.5920   Anisotropy =    21.9331

     14  C    Isotropic =   176.6514   Anisotropy =    19.3377

     15  O    Isotropic =   248.6109   Anisotropy =    23.3734

     16  Si   Isotropic =   333.4901   Anisotropy =    40.6062

     17  C    Isotropic =   185.3904   Anisotropy =    12.2380

     18  C    Isotropic =   186.0326   Anisotropy =     9.3340

     19  C    Isotropic =   186.9280   Anisotropy =    12.2537

     20  H    Isotropic =    32.1923   Anisotropy =    10.6454

     21  H    Isotropic =    31.9839   Anisotropy =     6.3479

     22  H    Isotropic =    31.9592   Anisotropy =     7.2575

     23  H    Isotropic =    32.3501   Anisotropy =    10.3023

     24  H    Isotropic =    31.9378   Anisotropy =     8.1740

     25  H    Isotropic =    31.8844   Anisotropy =     8.5921

     26  H    Isotropic =    31.8733   Anisotropy =     8.1158

     27  H    Isotropic =    31.9428   Anisotropy =     6.6096

     28  H    Isotropic =    32.2589   Anisotropy =    10.4540

     29  H    Isotropic =    30.4726   Anisotropy =     7.3952

     30  H    Isotropic =    31.2259   Anisotropy =     9.5012

     31  H    Isotropic =    31.5121   Anisotropy =     8.5993

     32  H    Isotropic =    30.6384   Anisotropy =     5.0470

     33  H    Isotropic =    30.3215   Anisotropy =     5.5955

     34  H    Isotropic =    30.5073   Anisotropy =     7.8721

     35  H    Isotropic =    31.1917   Anisotropy =     9.2705

     36  H    Isotropic =    31.0077   Anisotropy =    11.4026

     37  C    Isotropic =   146.1390   Anisotropy =    15.8475

     38  C    Isotropic =    45.7183   Anisotropy =   178.8084

     39  C    Isotropic =    64.8794   Anisotropy =   140.9352

     40  H    Isotropic =    30.2253   Anisotropy =     5.9544

     41  H    Isotropic =    29.5547   Anisotropy =     4.0164

     42  H    Isotropic =    25.7422   Anisotropy =     7.1993

     43  H    Isotropic =    26.6994   Anisotropy =     6.8476

     44  H    Isotropic =    26.7977   Anisotropy =     7.3728

 The electronic state is 1-A.
 Alpha  occ. eigenvalues --  -66.27489 -19.25921 -19.20716 -19.19561 -10.37002
 Alpha  occ. eigenvalues --  -10.31738 -10.30698 -10.25457 -10.25085 -10.24054
 Alpha  occ. eigenvalues --  -10.23953 -10.23898 -10.22810 -10.22677 -10.22090
 Alpha  occ. eigenvalues --  -10.21147 -10.20806 -10.20735  -5.33223  -3.67112
 Alpha  occ. eigenvalues --   -3.66817  -3.66800  -1.13202  -1.04801  -1.04073
 Alpha  occ. eigenvalues --   -0.85947  -0.83298  -0.80512  -0.77790  -0.74168
 Alpha  occ. eigenvalues --   -0.72494  -0.71964  -0.70443  -0.70192  -0.66500
 Alpha  occ. eigenvalues --   -0.63941  -0.61927  -0.58541  -0.56291  -0.53762
 Alpha  occ. eigenvalues --   -0.52099  -0.49998  -0.49308  -0.48933  -0.47690
 Alpha  occ. eigenvalues --   -0.46209  -0.45156  -0.44954  -0.44329  -0.43550
 Alpha  occ. eigenvalues --   -0.42723  -0.42438  -0.42076  -0.41412  -0.41393
 Alpha  occ. eigenvalues --   -0.40879  -0.40581  -0.39769  -0.39569  -0.38701
 Alpha  occ. eigenvalues --   -0.38432  -0.37901  -0.37161  -0.36556  -0.36122
 Alpha  occ. eigenvalues --   -0.35667  -0.34245  -0.33633  -0.32582  -0.31029
 Alpha  occ. eigenvalues --   -0.30696  -0.28808  -0.28233  -0.27212
 Alpha virt. eigenvalues --    0.00397   0.01348   0.03796   0.05859   0.05956
 Alpha virt. eigenvalues --    0.06678   0.07668   0.07865   0.08050   0.08877
 Alpha virt. eigenvalues --    0.09737   0.09839   0.10122   0.10624   0.11185

 Mulliken charges:
               1
     1  C   -0.027869
     2  C   -0.302428
     3  C    0.184273
     4  C   -0.630618
     5  C    0.474149
     6  H    0.244536
     7  H    0.255892
     8  H    0.276343
     9  H    0.287279
    10  O   -0.329446
    11  O   -0.382712
    12  C   -0.438775
    13  C   -0.664231
    14  C   -0.685630
    15  O   -0.638214
    16  Si   1.430939
    17  C   -1.060746
    18  C   -1.077599
    19  C   -1.044613
    20  H    0.243642
    21  H    0.247544
    22  H    0.245289
    23  H    0.233031
    24  H    0.241519
    25  H    0.241020
    26  H    0.244104
    27  H    0.245910
    28  H    0.236615
    29  H    0.261791
    30  H    0.242015
    31  H    0.232428
    32  H    0.229400
    33  H    0.241765
    34  H    0.240853
    35  H    0.222903
    36  H    0.229374
    37  C   -0.494093
    38  C   -0.189858
    39  C   -0.450193
    40  H    0.248669
    41  H    0.261341
    42  H    0.225271
    43  H    0.226005
    44  H    0.223125
 Sum of Mulliken charges =   0.00000

 Dipole moment (field-independent basis, Debye):
    X=              2.2503    Y=             -3.9601    Z=             -2.7828  Tot=              5.3376
 Quadrupole moment (field-independent basis, Debye-Ang):
   XX=           -119.7209   YY=           -120.1638   ZZ=           -126.6095
   XY=              7.4104   XZ=             12.5103   YZ=             -6.8523

 Normal termination of Gaussian 09 at Wed Feb  6 11:25:57 2019.
