 Gaussian 09, Revision D.01,
 Gaussian 09:  ES64L-G09RevD.01 24-Apr-2013

 ----------------------------------------------------------------------
 # mPW1PW91/6-311g(d) geom=checkpoint nmr=giao scrf=(solvent=chloroform
 )
 ----------------------------------------------------------------------

 -------------
 P_ng_2ginp017
 -------------
 Structure from the checkpoint file:  "/home/ke291/rds/hpc-work/06Feb0927IP1/P_ng_2ginp017.chk"
 Charge =  0 Multiplicity = 1

                         Standard orientation:
 ---------------------------------------------------------------------
 Center     Atomic      Atomic             Coordinates (Angstroms)
 Number     Number       Type             X           Y           Z
 ---------------------------------------------------------------------
      1          6           0        2.114272    0.689560    0.515274
      2          6           0        0.864144    1.579096    0.313660
      3          6           0       -0.266737    0.828235   -0.438913
      4          6           0        0.300327    0.308771   -1.765292
      5          6           0        1.594800   -0.467556   -1.639286
      6          1           0        2.990154    1.347579    0.557533
      7          1           0        0.472272    1.800083    1.312232
      8          1           0       -0.415505   -0.326981   -2.291205
      9          1           0        0.506325    1.152546   -2.434771
     10          8           0        2.423985   -0.184954   -0.620380
     11          8           0        1.935203   -1.298631   -2.458404
     12          6           0        2.122667   -0.168625    1.784032
     13          6           0        3.443403   -0.910815    2.007346
     14          6           0        1.264146    2.915518   -0.338874
     15          8           0       -0.659380   -0.258550    0.406178
     16         14           0       -1.553347   -1.678497    0.230499
     17          6           0       -3.062921   -1.479601   -0.888527
     18          6           0       -0.464553   -3.070708   -0.425054
     19          6           0       -2.115340   -2.073208    1.982320
     20          1           0       -1.051159   -3.992558   -0.515145
     21          1           0       -0.038081   -2.847867   -1.407529
     22          1           0        0.368278   -3.273443    0.256802
     23          1           0       -1.261086   -2.167354    2.660785
     24          1           0       -2.771642   -1.289746    2.375525
     25          1           0       -2.668586   -3.018720    2.008653
     26          1           0       -3.621497   -2.423246   -0.898892
     27          1           0       -3.742182   -0.700661   -0.527280
     28          1           0       -2.802066   -1.248852   -1.926718
     29          1           0        2.033781    3.403098    0.267200
     30          1           0        1.680944    2.779927   -1.342473
     31          1           0        0.420381    3.604554   -0.407025
     32          1           0        1.285349   -0.868919    1.749146
     33          1           0        1.932935    0.507838    2.627068
     34          1           0        3.410811   -1.485165    2.938289
     35          1           0        3.649913   -1.604395    1.188008
     36          1           0        4.285910   -0.212759    2.075722
     37          6           0       -1.499884    1.728101   -0.710020
     38          6           0       -2.120975    2.313942    0.528286
     39          6           0       -2.434816    3.600742    0.688491
     40          1           0       -2.238503    1.101815   -1.225706
     41          1           0       -1.233841    2.525838   -1.410334
     42          1           0       -2.328822    1.610342    1.332766
     43          1           0       -2.899815    3.964695    1.600072
     44          1           0       -2.247075    4.337667   -0.089535
 ---------------------------------------------------------------------

 SCF Done:  E(RmPW1PW91) =  -1064.38202180     A.U. after   12 cycles

      1  C    Isotropic =    94.3038   Anisotropy =    35.2065

      2  C    Isotropic =   144.9377   Anisotropy =    12.0052

      3  C    Isotropic =   105.3584   Anisotropy =    55.4750

      4  C    Isotropic =   146.2920   Anisotropy =    34.3669

      5  C    Isotropic =    13.2915   Anisotropy =    98.7761

      6  H    Isotropic =    27.8269   Anisotropy =     3.8225

      7  H    Isotropic =    30.2301   Anisotropy =     2.2234

      8  H    Isotropic =    29.7539   Anisotropy =     3.4624

      9  H    Isotropic =    29.6741   Anisotropy =     6.2808

     10  O    Isotropic =   106.5185   Anisotropy =   206.9500

     11  O    Isotropic =  -100.9944   Anisotropy =   562.0449

     12  C    Isotropic =   152.8798   Anisotropy =    24.6095

     13  C    Isotropic =   174.9014   Anisotropy =    23.1363

     14  C    Isotropic =   169.4942   Anisotropy =    28.5143

     15  O    Isotropic =   244.3629   Anisotropy =    40.0827

     16  Si   Isotropic =   332.5095   Anisotropy =    40.6293

     17  C    Isotropic =   185.5426   Anisotropy =     8.5832

     18  C    Isotropic =   185.6895   Anisotropy =    10.4399

     19  C    Isotropic =   186.5243   Anisotropy =    12.0130

     20  H    Isotropic =    32.3708   Anisotropy =    10.6775

     21  H    Isotropic =    31.8264   Anisotropy =     7.6894

     22  H    Isotropic =    31.9997   Anisotropy =     7.3106

     23  H    Isotropic =    31.8993   Anisotropy =     7.9030

     24  H    Isotropic =    31.9240   Anisotropy =     8.4197

     25  H    Isotropic =    32.3271   Anisotropy =    10.3760

     26  H    Isotropic =    32.1763   Anisotropy =    10.4667

     27  H    Isotropic =    31.8991   Anisotropy =     7.5965

     28  H    Isotropic =    31.8334   Anisotropy =     6.7433

     29  H    Isotropic =    31.1758   Anisotropy =    10.5948

     30  H    Isotropic =    31.1824   Anisotropy =     7.9461

     31  H    Isotropic =    31.0075   Anisotropy =     8.7915

     32  H    Isotropic =    29.6188   Anisotropy =     9.5697

     33  H    Isotropic =    30.6683   Anisotropy =     6.1706

     34  H    Isotropic =    31.0517   Anisotropy =    10.7174

     35  H    Isotropic =    30.5806   Anisotropy =     6.9720

     36  H    Isotropic =    31.2081   Anisotropy =    10.0146

     37  C    Isotropic =   141.1141   Anisotropy =    32.2950

     38  C    Isotropic =    46.6486   Anisotropy =   179.0676

     39  C    Isotropic =    65.9345   Anisotropy =   141.1317

     40  H    Isotropic =    29.6488   Anisotropy =     5.3298

     41  H    Isotropic =    29.9155   Anisotropy =     5.6870

     42  H    Isotropic =    25.6980   Anisotropy =     7.7315

     43  H    Isotropic =    26.6889   Anisotropy =     7.0658

     44  H    Isotropic =    26.7672   Anisotropy =     7.4611

 The electronic state is 1-A.
 Alpha  occ. eigenvalues --  -66.27392 -19.25700 -19.20633 -19.19343 -10.36796
 Alpha  occ. eigenvalues --  -10.31809 -10.30224 -10.25280 -10.25242 -10.24279
 Alpha  occ. eigenvalues --  -10.24229 -10.23016 -10.22977 -10.22924 -10.21729
 Alpha  occ. eigenvalues --  -10.21084 -10.20663 -10.20406  -5.33123  -3.67013
 Alpha  occ. eigenvalues --   -3.66723  -3.66693  -1.12956  -1.04538  -1.03829
 Alpha  occ. eigenvalues --   -0.85759  -0.82846  -0.80796  -0.77679  -0.73917
 Alpha  occ. eigenvalues --   -0.72864  -0.71563  -0.70279  -0.69955  -0.67063
 Alpha  occ. eigenvalues --   -0.64084  -0.61339  -0.58070  -0.55231  -0.53791
 Alpha  occ. eigenvalues --   -0.52263  -0.50781  -0.49243  -0.48953  -0.47001
 Alpha  occ. eigenvalues --   -0.46049  -0.45139  -0.44369  -0.43676  -0.43070
 Alpha  occ. eigenvalues --   -0.42704  -0.42481  -0.42390  -0.41564  -0.41246
 Alpha  occ. eigenvalues --   -0.40840  -0.40468  -0.39912  -0.39576  -0.39321
 Alpha  occ. eigenvalues --   -0.38670  -0.37896  -0.36944  -0.36637  -0.35816
 Alpha  occ. eigenvalues --   -0.35187  -0.34064  -0.33044  -0.32344  -0.30456
 Alpha  occ. eigenvalues --   -0.29587  -0.29468  -0.28654  -0.26957
 Alpha virt. eigenvalues --    0.00684   0.00957   0.03777   0.05628   0.06263
 Alpha virt. eigenvalues --    0.06935   0.07104   0.08061   0.08734   0.09056
 Alpha virt. eigenvalues --    0.09251   0.09390   0.10480   0.11014   0.11402

 Mulliken charges:
               1
     1  C   -0.024812
     2  C   -0.297083
     3  C    0.157013
     4  C   -0.629718
     5  C    0.504365
     6  H    0.244116
     7  H    0.261039
     8  H    0.272115
     9  H    0.280906
    10  O   -0.327259
    11  O   -0.392672
    12  C   -0.445447
    13  C   -0.669405
    14  C   -0.681385
    15  O   -0.639499
    16  Si   1.465996
    17  C   -1.087005
    18  C   -1.076824
    19  C   -1.057921
    20  H    0.234100
    21  H    0.251561
    22  H    0.245355
    23  H    0.243103
    24  H    0.240649
    25  H    0.232320
    26  H    0.243398
    27  H    0.246224
    28  H    0.247611
    29  H    0.242669
    30  H    0.235081
    31  H    0.249492
    32  H    0.270684
    33  H    0.224855
    34  H    0.225980
    35  H    0.238909
    36  H    0.219417
    37  C   -0.501770
    38  C   -0.182820
    39  C   -0.454238
    40  H    0.269199
    41  H    0.246067
    42  H    0.227379
    43  H    0.227461
    44  H    0.220792
 Sum of Mulliken charges =   0.00000

 Dipole moment (field-independent basis, Debye):
    X=             -3.0393    Y=              3.3761    Z=              2.2591  Tot=              5.0734
 Quadrupole moment (field-independent basis, Debye-Ang):
   XX=           -124.7356   YY=           -115.2456   ZZ=           -123.5439
   XY=              9.7833   XZ=              9.5085   YZ=             -7.2376

 Normal termination of Gaussian 09 at Wed Feb  6 11:44:32 2019.
