 Gaussian 09, Revision D.01,
 Gaussian 09:  ES64L-G09RevD.01 24-Apr-2013

 ----------------------------------------------------------------------
 # mPW1PW91/6-311g(d) geom=checkpoint nmr=giao scrf=(solvent=chloroform
 )
 ----------------------------------------------------------------------

 --------------------
 P_ng_correct1ginp012
 --------------------
 Structure from the checkpoint file:  "/home/ke291/rds/hpc-work/06Feb0927IP1/P_ng_correct1ginp012.chk"
 Charge =  0 Multiplicity = 1

                         Standard orientation:
 ---------------------------------------------------------------------
 Center     Atomic      Atomic             Coordinates (Angstroms)
 Number     Number       Type             X           Y           Z
 ---------------------------------------------------------------------
      1          6           0        2.203326   -0.037948    0.495328
      2          6           0        0.722800    0.171546    0.850456
      3          6           0       -0.140716    0.253465   -0.441087
      4          6           0        0.029223   -1.103326   -1.145175
      5          6           0        1.470910   -1.512529   -1.382415
      6          1           0        2.606784    0.895853    0.083131
      7          1           0        0.377764   -0.732331    1.371795
      8          1           0       -0.408287   -1.894550   -0.524426
      9          1           0       -0.482738   -1.130450   -2.109641
     10          8           0        2.420627   -1.040461   -0.550312
     11          8           0        1.794247   -2.285472   -2.259946
     12          6           0        3.072975   -0.477282    1.675286
     13          6           0        4.557645   -0.621238    1.326917
     14          6           0        0.545273    1.353939    1.815568
     15          8           0       -1.501912    0.497183   -0.103667
     16         14           0       -2.831977   -0.428552    0.354240
     17          6           0       -4.094332    0.857231    0.892455
     18          6           0       -3.510137   -1.415657   -1.104256
     19          6           0       -2.439857   -1.592190    1.789282
     20          1           0       -3.698470   -0.765893   -1.965608
     21          1           0       -2.833409   -2.213165   -1.426169
     22          1           0       -4.462218   -1.883979   -0.828211
     23          1           0       -3.362779   -2.078386    2.127235
     24          1           0       -1.737896   -2.387514    1.516821
     25          1           0       -2.021302   -1.049946    2.643670
     26          1           0       -3.732725    1.438566    1.746911
     27          1           0       -4.313078    1.556799    0.079070
     28          1           0       -5.036138    0.380279    1.185799
     29          1           0        0.921198    1.103949    2.811028
     30          1           0        1.065415    2.249016    1.466689
     31          1           0       -0.514500    1.598021    1.910986
     32          1           0        2.679545   -1.426690    2.060143
     33          1           0        2.957571    0.261419    2.474947
     34          1           0        5.130590   -0.927936    2.207126
     35          1           0        4.709179   -1.367885    0.543920
     36          1           0        4.973432    0.328700    0.972644
     37          6           0        0.259095    1.372421   -1.442731
     38          6           0        0.080825    2.793013   -0.982036
     39          6           0        0.974416    3.767232   -1.162875
     40          1           0       -0.387402    1.215078   -2.317495
     41          1           0        1.287399    1.219617   -1.789370
     42          1           0       -0.873768    3.018472   -0.511179
     43          1           0        0.774993    4.787783   -0.849235
     44          1           0        1.936144    3.582819   -1.636840
 ---------------------------------------------------------------------

 SCF Done:  E(RmPW1PW91) =  -1064.38265843     A.U. after   13 cycles

      1  C    Isotropic =   100.1301   Anisotropy =    50.5988

      2  C    Isotropic =   139.0414   Anisotropy =    21.8750

      3  C    Isotropic =   108.3329   Anisotropy =    56.0262

      4  C    Isotropic =   137.3171   Anisotropy =    30.9413

      5  C    Isotropic =    13.7164   Anisotropy =    86.5020

      6  H    Isotropic =    28.0190   Anisotropy =     1.9014

      7  H    Isotropic =    30.2393   Anisotropy =     4.4409

      8  H    Isotropic =    29.6352   Anisotropy =     4.5705

      9  H    Isotropic =    29.5498   Anisotropy =     4.7502

     10  O    Isotropic =    99.2467   Anisotropy =   185.3134

     11  O    Isotropic =  -105.0504   Anisotropy =   558.4708

     12  C    Isotropic =   156.5324   Anisotropy =    23.9404

     13  C    Isotropic =   175.7205   Anisotropy =    21.6778

     14  C    Isotropic =   175.1503   Anisotropy =    14.5827

     15  O    Isotropic =   248.9026   Anisotropy =    17.2859

     16  Si   Isotropic =   333.2058   Anisotropy =    40.5853

     17  C    Isotropic =   187.0701   Anisotropy =    12.3322

     18  C    Isotropic =   184.9299   Anisotropy =    13.0476

     19  C    Isotropic =   186.1198   Anisotropy =     9.4612

     20  H    Isotropic =    31.8637   Anisotropy =     8.2114

     21  H    Isotropic =    31.8721   Anisotropy =     6.9275

     22  H    Isotropic =    32.2094   Anisotropy =    10.3152

     23  H    Isotropic =    32.1458   Anisotropy =    10.6222

     24  H    Isotropic =    31.9688   Anisotropy =     6.5199

     25  H    Isotropic =    31.9326   Anisotropy =     7.1167

     26  H    Isotropic =    31.8525   Anisotropy =     8.1334

     27  H    Isotropic =    31.8302   Anisotropy =     8.5619

     28  H    Isotropic =    32.3194   Anisotropy =    10.2728

     29  H    Isotropic =    31.3655   Anisotropy =     9.4621

     30  H    Isotropic =    31.1556   Anisotropy =     8.3184

     31  H    Isotropic =    30.5251   Anisotropy =     6.2004

     32  H    Isotropic =    30.6796   Anisotropy =     5.3090

     33  H    Isotropic =    30.3065   Anisotropy =     5.5208

     34  H    Isotropic =    31.0147   Anisotropy =    11.4262

     35  H    Isotropic =    30.5142   Anisotropy =     7.8580

     36  H    Isotropic =    31.1921   Anisotropy =     9.1488

     37  C    Isotropic =   140.6939   Anisotropy =    31.2465

     38  C    Isotropic =    42.8525   Anisotropy =   185.9328

     39  C    Isotropic =    68.9678   Anisotropy =   137.5678

     40  H    Isotropic =    29.6372   Anisotropy =     5.3581

     41  H    Isotropic =    29.6693   Anisotropy =     5.5148

     42  H    Isotropic =    25.4772   Anisotropy =     8.0677

     43  H    Isotropic =    26.9287   Anisotropy =     6.9065

     44  H    Isotropic =    26.8357   Anisotropy =     7.0241

 The electronic state is 1-A.
 Alpha  occ. eigenvalues --  -66.27547 -19.25976 -19.20804 -19.19658 -10.37118
 Alpha  occ. eigenvalues --  -10.31817 -10.30641 -10.25381 -10.25368 -10.24211
 Alpha  occ. eigenvalues --  -10.24025 -10.23838 -10.22590 -10.22400 -10.22056
 Alpha  occ. eigenvalues --  -10.21181 -10.20869 -10.20755  -5.33280  -3.67170
 Alpha  occ. eigenvalues --   -3.66872  -3.66858  -1.13260  -1.04882  -1.04153
 Alpha  occ. eigenvalues --   -0.85920  -0.83161  -0.80723  -0.77832  -0.74184
 Alpha  occ. eigenvalues --   -0.72571  -0.71721  -0.70480  -0.70227  -0.66488
 Alpha  occ. eigenvalues --   -0.63843  -0.61982  -0.58571  -0.56633  -0.53246
 Alpha  occ. eigenvalues --   -0.52545  -0.50631  -0.49131  -0.48176  -0.47296
 Alpha  occ. eigenvalues --   -0.46693  -0.45040  -0.44814  -0.44237  -0.43553
 Alpha  occ. eigenvalues --   -0.42762  -0.42513  -0.41816  -0.41473  -0.41213
 Alpha  occ. eigenvalues --   -0.41005  -0.40767  -0.40142  -0.39803  -0.38894
 Alpha  occ. eigenvalues --   -0.38519  -0.37856  -0.37100  -0.36663  -0.35954
 Alpha  occ. eigenvalues --   -0.35596  -0.34317  -0.33362  -0.32618  -0.31120
 Alpha  occ. eigenvalues --   -0.30729  -0.29015  -0.28277  -0.26855
 Alpha virt. eigenvalues --    0.00395   0.01163   0.03753   0.05551   0.05961
 Alpha virt. eigenvalues --    0.06467   0.07577   0.07838   0.08495   0.08926
 Alpha virt. eigenvalues --    0.09574   0.10042   0.10387   0.10422   0.11127

 Mulliken charges:
               1
     1  C   -0.031684
     2  C   -0.284678
     3  C    0.183700
     4  C   -0.651608
     5  C    0.478091
     6  H    0.247818
     7  H    0.251452
     8  H    0.278944
     9  H    0.279825
    10  O   -0.328100
    11  O   -0.383284
    12  C   -0.440199
    13  C   -0.663839
    14  C   -0.691599
    15  O   -0.635676
    16  Si   1.425205
    17  C   -1.043150
    18  C   -1.058439
    19  C   -1.078082
    20  H    0.244272
    21  H    0.245510
    22  H    0.236853
    23  H    0.244317
    24  H    0.247053
    25  H    0.248135
    26  H    0.241125
    27  H    0.241970
    28  H    0.233205
    29  H    0.238174
    30  H    0.245988
    31  H    0.257372
    32  H    0.228420
    33  H    0.243524
    34  H    0.229209
    35  H    0.240523
    36  H    0.222746
    37  C   -0.475658
    38  C   -0.178978
    39  C   -0.460180
    40  H    0.255090
    41  H    0.244689
    42  H    0.226956
    43  H    0.225225
    44  H    0.219765
 Sum of Mulliken charges =   0.00000

 Dipole moment (field-independent basis, Debye):
    X=             -2.5344    Y=              2.0607    Z=              3.8911  Tot=              5.0804
 Quadrupole moment (field-independent basis, Debye-Ang):
   XX=           -119.0344   YY=           -125.7189   ZZ=           -124.3702
   XY=             11.7356   XZ=              8.0162   YZ=             -8.3760

 Normal termination of Gaussian 09 at Wed Feb  6 11:28:24 2019.
