 Gaussian 09, Revision D.01,
 Gaussian 09:  ES64L-G09RevD.01 24-Apr-2013

 ----------------------------------------------------------------------
 # mPW1PW91/6-311g(d) geom=checkpoint nmr=giao scrf=(solvent=chloroform
 )
 ----------------------------------------------------------------------

 --------------------
 P_ng_correct1ginp016
 --------------------
 Structure from the checkpoint file:  "/home/ke291/rds/hpc-work/06Feb0927IP1/P_ng_correct1ginp016.chk"
 Charge =  0 Multiplicity = 1

                         Standard orientation:
 ---------------------------------------------------------------------
 Center     Atomic      Atomic             Coordinates (Angstroms)
 Number     Number       Type             X           Y           Z
 ---------------------------------------------------------------------
      1          6           0       -2.306414    0.027096   -0.403378
      2          6           0       -0.826398    0.062513   -0.808749
      3          6           0        0.057789    0.438869    0.415079
      4          6           0       -0.163332   -0.677351    1.450933
      5          6           0       -1.617868   -0.965644    1.777066
      6          1           0       -2.638420    1.053661   -0.206053
      7          1           0       -0.522389   -0.957861   -1.074056
      8          1           0        0.247360   -1.618916    1.067059
      9          1           0        0.347309   -0.465462    2.392976
     10          8           0       -2.553820   -0.704240    0.842012
     11          8           0       -1.962505   -1.474489    2.823188
     12          6           0       -3.265052   -0.588932   -1.429403
     13          6           0       -2.951890   -2.032128   -1.835276
     14          6           0       -0.623108    0.939113   -2.052947
     15          8           0        1.423770    0.521034    0.022901
     16         14           0        2.698504   -0.556909   -0.199603
     17          6           0        3.370438   -1.162830    1.456293
     18          6           0        2.214790   -2.031960   -1.276002
     19          6           0        4.001594    0.480055   -1.072924
     20          1           0        1.475471   -2.685309   -0.800470
     21          1           0        1.808622   -1.707757   -2.239824
     22          1           0        3.102183   -2.642942   -1.479645
     23          1           0        4.912297   -0.103750   -1.247212
     24          1           0        3.642181    0.838212   -2.043191
     25          1           0        4.274685    1.354265   -0.472831
     26          1           0        3.618744   -0.320241    2.110495
     27          1           0        2.663103   -1.805178    1.989886
     28          1           0        4.287711   -1.742451    1.299540
     29          1           0       -1.075435    1.926661   -1.936300
     30          1           0        0.443417    1.078729   -2.240652
     31          1           0       -1.060169    0.463286   -2.935430
     32          1           0       -3.284156    0.060552   -2.311156
     33          1           0       -4.268897   -0.541902   -0.992873
     34          1           0       -2.888647   -2.681167   -0.956731
     35          1           0       -3.741931   -2.423399   -2.482966
     36          1           0       -2.008990   -2.111666   -2.385581
     37          6           0       -0.274871    1.797787    1.091761
     38          6           0       -0.039522    3.039278    0.276167
     39          6           0       -0.887391    4.066328    0.194954
     40          1           0        0.377394    1.842272    1.975192
     41          1           0       -1.303307    1.790027    1.470289
     42          1           0        0.918343    3.089851   -0.237562
     43          1           0       -0.647007    4.958978   -0.375204
     44          1           0       -1.850691    4.056632    0.700486
 ---------------------------------------------------------------------

 SCF Done:  E(RmPW1PW91) =  -1064.38212104     A.U. after   12 cycles

      1  C    Isotropic =   102.2897   Anisotropy =    59.6729

      2  C    Isotropic =   143.6121   Anisotropy =    17.7725

      3  C    Isotropic =   108.0319   Anisotropy =    55.5850

      4  C    Isotropic =   137.4860   Anisotropy =    31.4623

      5  C    Isotropic =    12.7786   Anisotropy =    88.4593

      6  H    Isotropic =    27.7264   Anisotropy =     2.9621

      7  H    Isotropic =    30.0262   Anisotropy =     3.1658

      8  H    Isotropic =    29.6283   Anisotropy =     4.2133

      9  H    Isotropic =    29.5881   Anisotropy =     4.8848

     10  O    Isotropic =    96.2381   Anisotropy =   159.7883

     11  O    Isotropic =  -107.0348   Anisotropy =   561.0467

     12  C    Isotropic =   160.5959   Anisotropy =    20.7889

     13  C    Isotropic =   181.4662   Anisotropy =    11.5799

     14  C    Isotropic =   175.8095   Anisotropy =    13.5259

     15  O    Isotropic =   248.7346   Anisotropy =    18.1029

     16  Si   Isotropic =   333.2894   Anisotropy =    39.9262

     17  C    Isotropic =   184.7619   Anisotropy =    13.1073

     18  C    Isotropic =   185.8094   Anisotropy =     9.4705

     19  C    Isotropic =   186.8699   Anisotropy =    12.4432

     20  H    Isotropic =    31.9468   Anisotropy =     6.4991

     21  H    Isotropic =    31.9005   Anisotropy =     6.9456

     22  H    Isotropic =    32.1448   Anisotropy =    10.6618

     23  H    Isotropic =    32.3231   Anisotropy =    10.2435

     24  H    Isotropic =    31.8432   Anisotropy =     8.0653

     25  H    Isotropic =    31.8352   Anisotropy =     8.6425

     26  H    Isotropic =    31.8839   Anisotropy =     8.2984

     27  H    Isotropic =    31.8964   Anisotropy =     6.9345

     28  H    Isotropic =    32.2159   Anisotropy =    10.2816

     29  H    Isotropic =    31.1247   Anisotropy =     8.8624

     30  H    Isotropic =    30.5893   Anisotropy =     6.3842

     31  H    Isotropic =    31.4256   Anisotropy =     9.1774

     32  H    Isotropic =    30.3826   Anisotropy =     7.0526

     33  H    Isotropic =    30.1207   Anisotropy =     9.7234

     34  H    Isotropic =    31.1458   Anisotropy =     7.2225

     35  H    Isotropic =    31.2288   Anisotropy =    12.0894

     36  H    Isotropic =    31.2770   Anisotropy =     6.7439

     37  C    Isotropic =   140.5370   Anisotropy =    32.2077

     38  C    Isotropic =    42.9050   Anisotropy =   185.9062

     39  C    Isotropic =    68.9265   Anisotropy =   137.5709

     40  H    Isotropic =    29.6446   Anisotropy =     5.4391

     41  H    Isotropic =    29.6431   Anisotropy =     5.8123

     42  H    Isotropic =    25.4713   Anisotropy =     8.1742

     43  H    Isotropic =    26.9264   Anisotropy =     6.9766

     44  H    Isotropic =    26.8268   Anisotropy =     7.1955

 The electronic state is 1-A.
 Alpha  occ. eigenvalues --  -66.27540 -19.25973 -19.20779 -19.19663 -10.37094
 Alpha  occ. eigenvalues --  -10.31814 -10.30604 -10.25367 -10.25281 -10.24209
 Alpha  occ. eigenvalues --  -10.24026 -10.23856 -10.22596 -10.22427 -10.22348
 Alpha  occ. eigenvalues --  -10.21192 -10.20855 -10.20753  -5.33273  -3.67163
 Alpha  occ. eigenvalues --   -3.66866  -3.66850  -1.13235  -1.04872  -1.04123
 Alpha  occ. eigenvalues --   -0.85942  -0.83120  -0.80675  -0.77675  -0.74181
 Alpha  occ. eigenvalues --   -0.72789  -0.71916  -0.70485  -0.70221  -0.66927
 Alpha  occ. eigenvalues --   -0.62833  -0.62585  -0.58505  -0.56156  -0.53211
 Alpha  occ. eigenvalues --   -0.53059  -0.50666  -0.49270  -0.48197  -0.47254
 Alpha  occ. eigenvalues --   -0.46206  -0.45376  -0.44659  -0.44289  -0.43583
 Alpha  occ. eigenvalues --   -0.42912  -0.42689  -0.41982  -0.41555  -0.41210
 Alpha  occ. eigenvalues --   -0.40870  -0.40712  -0.40241  -0.39792  -0.38961
 Alpha  occ. eigenvalues --   -0.37978  -0.37855  -0.37481  -0.36562  -0.36305
 Alpha  occ. eigenvalues --   -0.35630  -0.34293  -0.33353  -0.32575  -0.31144
 Alpha  occ. eigenvalues --   -0.30697  -0.29015  -0.28239  -0.26860
 Alpha virt. eigenvalues --    0.00333   0.01160   0.03585   0.05440   0.05740
 Alpha virt. eigenvalues --    0.06190   0.07601   0.08307   0.08612   0.08650
 Alpha virt. eigenvalues --    0.09679   0.10082   0.10456   0.10545   0.11437

 Mulliken charges:
               1
     1  C   -0.034311
     2  C   -0.310656
     3  C    0.192389
     4  C   -0.653425
     5  C    0.478874
     6  H    0.254708
     7  H    0.268351
     8  H    0.278689
     9  H    0.278987
    10  O   -0.327263
    11  O   -0.382959
    12  C   -0.443567
    13  C   -0.682444
    14  C   -0.689568
    15  O   -0.636386
    16  Si   1.424798
    17  C   -1.057846
    18  C   -1.082670
    19  C   -1.043208
    20  H    0.248163
    21  H    0.248573
    22  H    0.245330
    23  H    0.233222
    24  H    0.241309
    25  H    0.241971
    26  H    0.243892
    27  H    0.245660
    28  H    0.236563
    29  H    0.246398
    30  H    0.255884
    31  H    0.239212
    32  H    0.241606
    33  H    0.242483
    34  H    0.237258
    35  H    0.236077
    36  H    0.228280
    37  C   -0.477219
    38  C   -0.179046
    39  C   -0.459803
    40  H    0.255116
    41  H    0.244660
    42  H    0.226860
    43  H    0.225259
    44  H    0.219799
 Sum of Mulliken charges =   0.00000

 Dipole moment (field-independent basis, Debye):
    X=              2.4846    Y=              0.9611    Z=             -4.2968  Tot=              5.0557
 Quadrupole moment (field-independent basis, Debye-Ang):
   XX=           -119.6653   YY=           -120.8662   ZZ=           -128.9123
   XY=             -9.3452   XZ=             11.5834   YZ=              6.9173

 Normal termination of Gaussian 09 at Wed Feb  6 11:32:45 2019.
