 Gaussian 09, Revision D.01,
 Gaussian 09:  ES64L-G09RevD.01 24-Apr-2013

 ----------------------------------------------------------------------
 # mPW1PW91/6-311g(d) geom=checkpoint nmr=giao scrf=(solvent=chloroform
 )
 ----------------------------------------------------------------------

 --------------------
 P_ng_correct1ginp017
 --------------------
 Structure from the checkpoint file:  "/home/ke291/rds/hpc-work/06Feb0927IP1/P_ng_correct1ginp017.chk"
 Charge =  0 Multiplicity = 1

                         Standard orientation:
 ---------------------------------------------------------------------
 Center     Atomic      Atomic             Coordinates (Angstroms)
 Number     Number       Type             X           Y           Z
 ---------------------------------------------------------------------
      1          6           0        2.114338    0.689370    0.515291
      2          6           0        0.864269    1.578992    0.313681
      3          6           0       -0.266651    0.828220   -0.438921
      4          6           0        0.300396    0.308735   -1.765300
      5          6           0        1.594843   -0.467662   -1.639296
      6          1           0        2.990243    1.347360    0.557590
      7          1           0        0.472395    1.799970    1.312258
      8          1           0       -0.415470   -0.326996   -2.291195
      9          1           0        0.506449    1.152485   -2.434796
     10          8           0        2.424022   -0.185139   -0.620359
     11          8           0        1.935224   -1.298723   -2.458434
     12          6           0        2.122684   -0.168824    1.784044
     13          6           0        3.443424   -0.911000    2.007386
     14          6           0        1.264366    2.915398   -0.338816
     15          8           0       -0.659361   -0.258565    0.406156
     16         14           0       -1.553560   -1.678394    0.230514
     17          6           0       -3.063334   -1.479163   -0.888178
     18          6           0       -0.465056   -3.070616   -0.425488
     19          6           0       -2.115204   -2.073129    1.982435
     20          1           0        0.368029   -3.273394    0.256041
     21          1           0       -1.051689   -3.992457   -0.515467
     22          1           0       -0.038931   -2.847681   -1.408096
     23          1           0       -2.668928   -3.018361    2.008818
     24          1           0       -1.260801   -2.167794    2.660636
     25          1           0       -2.770991   -1.289381    2.375925
     26          1           0       -3.622570   -2.422421   -0.897868
     27          1           0       -3.741958   -0.699548   -0.527193
     28          1           0       -2.802545   -1.249165   -1.926552
     29          1           0        2.034083    3.402891    0.267224
     30          1           0        1.681085    2.779813   -1.342451
     31          1           0        0.420657    3.604510   -0.406887
     32          1           0        1.285368   -0.869118    1.749103
     33          1           0        1.932903    0.507620    2.627086
     34          1           0        3.410875   -1.485266    2.938380
     35          1           0        3.649910   -1.604647    1.188100
     36          1           0        4.285928   -0.212930    2.075662
     37          6           0       -1.499703    1.728196   -0.710070
     38          6           0       -2.120852    2.314032    0.528211
     39          6           0       -2.434573    3.600857    0.688458
     40          1           0       -2.238327    1.102015   -1.225870
     41          1           0       -1.233523    2.525950   -1.410315
     42          1           0       -2.328828    1.610425    1.332651
     43          1           0       -2.899593    3.964818    1.600024
     44          1           0       -2.246687    4.337806   -0.089511
 ---------------------------------------------------------------------

 SCF Done:  E(RmPW1PW91) =  -1064.38202188     A.U. after   12 cycles

      1  C    Isotropic =    94.3038   Anisotropy =    35.1993

      2  C    Isotropic =   144.9368   Anisotropy =    12.0064

      3  C    Isotropic =   105.3574   Anisotropy =    55.4783

      4  C    Isotropic =   146.2902   Anisotropy =    34.3680

      5  C    Isotropic =    13.2929   Anisotropy =    98.7718

      6  H    Isotropic =    27.8269   Anisotropy =     3.8223

      7  H    Isotropic =    30.2300   Anisotropy =     2.2232

      8  H    Isotropic =    29.7541   Anisotropy =     3.4622

      9  H    Isotropic =    29.6741   Anisotropy =     6.2808

     10  O    Isotropic =   106.5212   Anisotropy =   206.9437

     11  O    Isotropic =  -100.9936   Anisotropy =   562.0492

     12  C    Isotropic =   152.8791   Anisotropy =    24.6100

     13  C    Isotropic =   174.9002   Anisotropy =    23.1378

     14  C    Isotropic =   169.4935   Anisotropy =    28.5144

     15  O    Isotropic =   244.3562   Anisotropy =    40.0915

     16  Si   Isotropic =   332.5032   Anisotropy =    40.6270

     17  C    Isotropic =   185.5423   Anisotropy =     8.5824

     18  C    Isotropic =   185.6892   Anisotropy =    10.4377

     19  C    Isotropic =   186.5246   Anisotropy =    12.0117

     20  H    Isotropic =    31.9998   Anisotropy =     7.3107

     21  H    Isotropic =    32.3705   Anisotropy =    10.6778

     22  H    Isotropic =    31.8264   Anisotropy =     7.6876

     23  H    Isotropic =    32.3271   Anisotropy =    10.3770

     24  H    Isotropic =    31.8993   Anisotropy =     7.9033

     25  H    Isotropic =    31.9240   Anisotropy =     8.4185

     26  H    Isotropic =    32.1762   Anisotropy =    10.4674

     27  H    Isotropic =    31.8992   Anisotropy =     7.5947

     28  H    Isotropic =    31.8336   Anisotropy =     6.7443

     29  H    Isotropic =    31.1758   Anisotropy =    10.5947

     30  H    Isotropic =    31.1824   Anisotropy =     7.9460

     31  H    Isotropic =    31.0075   Anisotropy =     8.7915

     32  H    Isotropic =    29.6189   Anisotropy =     9.5696

     33  H    Isotropic =    30.6684   Anisotropy =     6.1703

     34  H    Isotropic =    31.0516   Anisotropy =    10.7176

     35  H    Isotropic =    30.5807   Anisotropy =     6.9726

     36  H    Isotropic =    31.2081   Anisotropy =    10.0140

     37  C    Isotropic =   141.1158   Anisotropy =    32.2988

     38  C    Isotropic =    46.6493   Anisotropy =   179.0666

     39  C    Isotropic =    65.9335   Anisotropy =   141.1329

     40  H    Isotropic =    29.6490   Anisotropy =     5.3287

     41  H    Isotropic =    29.9154   Anisotropy =     5.6864

     42  H    Isotropic =    25.6981   Anisotropy =     7.7313

     43  H    Isotropic =    26.6888   Anisotropy =     7.0657

     44  H    Isotropic =    26.7672   Anisotropy =     7.4611

 The electronic state is 1-A.
 Alpha  occ. eigenvalues --  -66.27392 -19.25700 -19.20633 -19.19343 -10.36796
 Alpha  occ. eigenvalues --  -10.31809 -10.30224 -10.25280 -10.25242 -10.24279
 Alpha  occ. eigenvalues --  -10.24229 -10.23016 -10.22977 -10.22924 -10.21729
 Alpha  occ. eigenvalues --  -10.21084 -10.20664 -10.20406  -5.33123  -3.67013
 Alpha  occ. eigenvalues --   -3.66723  -3.66693  -1.12956  -1.04537  -1.03828
 Alpha  occ. eigenvalues --   -0.85759  -0.82846  -0.80796  -0.77678  -0.73917
 Alpha  occ. eigenvalues --   -0.72864  -0.71563  -0.70279  -0.69956  -0.67062
 Alpha  occ. eigenvalues --   -0.64084  -0.61339  -0.58070  -0.55231  -0.53791
 Alpha  occ. eigenvalues --   -0.52263  -0.50780  -0.49243  -0.48953  -0.47001
 Alpha  occ. eigenvalues --   -0.46049  -0.45138  -0.44369  -0.43676  -0.43070
 Alpha  occ. eigenvalues --   -0.42704  -0.42481  -0.42390  -0.41564  -0.41246
 Alpha  occ. eigenvalues --   -0.40840  -0.40469  -0.39912  -0.39576  -0.39321
 Alpha  occ. eigenvalues --   -0.38670  -0.37896  -0.36944  -0.36637  -0.35816
 Alpha  occ. eigenvalues --   -0.35186  -0.34063  -0.33044  -0.32344  -0.30456
 Alpha  occ. eigenvalues --   -0.29587  -0.29468  -0.28654  -0.26957
 Alpha virt. eigenvalues --    0.00684   0.00957   0.03777   0.05628   0.06263
 Alpha virt. eigenvalues --    0.06935   0.07104   0.08061   0.08734   0.09056
 Alpha virt. eigenvalues --    0.09251   0.09390   0.10480   0.11014   0.11402

 Mulliken charges:
               1
     1  C   -0.024817
     2  C   -0.297078
     3  C    0.157022
     4  C   -0.629703
     5  C    0.504361
     6  H    0.244112
     7  H    0.261037
     8  H    0.272115
     9  H    0.280901
    10  O   -0.327256
    11  O   -0.392670
    12  C   -0.445440
    13  C   -0.669405
    14  C   -0.681390
    15  O   -0.639504
    16  Si   1.465972
    17  C   -1.086994
    18  C   -1.076816
    19  C   -1.057919
    20  H    0.245360
    21  H    0.234104
    22  H    0.251556
    23  H    0.232318
    24  H    0.243102
    25  H    0.240652
    26  H    0.243400
    27  H    0.246228
    28  H    0.247608
    29  H    0.242669
    30  H    0.235081
    31  H    0.249492
    32  H    0.270679
    33  H    0.224853
    34  H    0.225981
    35  H    0.238906
    36  H    0.219417
    37  C   -0.501789
    38  C   -0.182815
    39  C   -0.454238
    40  H    0.269195
    41  H    0.246073
    42  H    0.227382
    43  H    0.227462
    44  H    0.220793
 Sum of Mulliken charges =   0.00000

 Dipole moment (field-independent basis, Debye):
    X=             -3.0394    Y=              3.3762    Z=              2.2592  Tot=              5.0735
 Quadrupole moment (field-independent basis, Debye-Ang):
   XX=           -124.7349   YY=           -115.2462   ZZ=           -123.5442
   XY=              9.7843   XZ=              9.5077   YZ=             -7.2380

 Normal termination of Gaussian 09 at Wed Feb  6 11:42:45 2019.
