 Gaussian 09, Revision D.01,
 Gaussian 09:  ES64L-G09RevD.01 24-Apr-2013

 ----------------------------------------------------------------------
 # mPW1PW91/6-311g(d) geom=checkpoint nmr=giao scrf=(solvent=chloroform
 )
 ----------------------------------------------------------------------

 --------------------
 P_ng_correct1ginp004
 --------------------
 Structure from the checkpoint file:  "/home/ke291/rds/hpc-work/06Feb0927IP1/P_ng_correct1ginp004.chk"
 Charge =  0 Multiplicity = 1

                         Standard orientation:
 ---------------------------------------------------------------------
 Center     Atomic      Atomic             Coordinates (Angstroms)
 Number     Number       Type             X           Y           Z
 ---------------------------------------------------------------------
      1          6           0        2.473658    0.310613    0.101338
      2          6           0        1.128531    0.296601    0.838034
      3          6           0       -0.039990    0.118997   -0.172302
      4          6           0        0.192908   -1.252929   -0.829196
      5          6           0        1.581546   -1.461170   -1.405867
      6          1           0        2.544608    1.236224   -0.482813
      7          1           0        1.088916   -0.603470    1.464845
      8          1           0        0.052906   -2.032459   -0.071151
      9          1           0       -0.519018   -1.453694   -1.633938
     10          8           0        2.612523   -0.772591   -0.876514
     11          8           0        1.805126   -2.262715   -2.289238
     12          6           0        3.720885    0.218467    0.988053
     13          6           0        3.789213   -1.010903    1.898908
     14          6           0        1.000989    1.507308    1.774177
     15          8           0       -1.244405    0.121486    0.588412
     16         14           0       -2.793446   -0.513420    0.394002
     17          6           0       -3.524341   -0.131960   -1.304307
     18          6           0       -2.809832   -2.378571    0.682989
     19          6           0       -3.790425    0.345947    1.737010
     20          1           0       -2.296428   -2.933193   -0.108685
     21          1           0       -2.337967   -2.636386    1.637232
     22          1           0       -3.844444   -2.739916    0.717417
     23          1           0       -3.808219    1.430427    1.587065
     24          1           0       -4.826989   -0.009119    1.739725
     25          1           0       -3.367942    0.151397    2.728280
     26          1           0       -3.530766    0.943025   -1.512378
     27          1           0       -2.986697   -0.631283   -2.117219
     28          1           0       -4.562834   -0.481992   -1.339979
     29          1           0        1.697952    1.419274    2.612295
     30          1           0        1.202248    2.449369    1.258895
     31          1           0       -0.010547    1.551070    2.181737
     32          1           0        3.784384    1.136846    1.581433
     33          1           0        4.587530    0.226365    0.317759
     34          1           0        3.684974   -1.933753    1.320518
     35          1           0        4.753438   -1.047271    2.414454
     36          1           0        3.008293   -0.999796    2.665739
     37          6           0       -0.130455    1.198580   -1.287139
     38          6           0       -0.439619    2.604162   -0.848940
     39          6           0        0.171108    3.695442   -1.314083
     40          1           0       -0.932218    0.865346   -1.959806
     41          1           0        0.784455    1.192170   -1.890755
     42          1           0       -1.250321    2.709847   -0.130453
     43          1           0       -0.121306    4.691290   -0.994188
     44          1           0        0.983223    3.634613   -2.035381
 ---------------------------------------------------------------------

 SCF Done:  E(RmPW1PW91) =  -1064.38293463     A.U. after   12 cycles

      1  C    Isotropic =   102.4925   Anisotropy =    60.9368

      2  C    Isotropic =   142.4167   Anisotropy =    21.0922

      3  C    Isotropic =   108.6457   Anisotropy =    55.1727

      4  C    Isotropic =   137.2245   Anisotropy =    31.8962

      5  C    Isotropic =    12.8856   Anisotropy =    88.7705

      6  H    Isotropic =    27.7538   Anisotropy =     2.6992

      7  H    Isotropic =    30.0673   Anisotropy =     5.0299

      8  H    Isotropic =    29.5373   Anisotropy =     4.6960

      9  H    Isotropic =    29.6380   Anisotropy =     4.0474

     10  O    Isotropic =    95.9672   Anisotropy =   160.8297

     11  O    Isotropic =  -104.6372   Anisotropy =   562.3127

     12  C    Isotropic =   160.4796   Anisotropy =    20.8889

     13  C    Isotropic =   181.4778   Anisotropy =    11.7130

     14  C    Isotropic =   176.2686   Anisotropy =    13.8540

     15  O    Isotropic =   246.6241   Anisotropy =    20.6296

     16  Si   Isotropic =   332.4301   Anisotropy =    42.1870

     17  C    Isotropic =   185.5741   Anisotropy =     9.5205

     18  C    Isotropic =   184.9134   Anisotropy =    12.1262

     19  C    Isotropic =   186.8315   Anisotropy =    12.3596

     20  H    Isotropic =    31.8632   Anisotropy =     6.8594

     21  H    Isotropic =    31.9272   Anisotropy =     7.7987

     22  H    Isotropic =    32.2091   Anisotropy =    10.3468

     23  H    Isotropic =    31.8361   Anisotropy =     8.2867

     24  H    Isotropic =    32.3249   Anisotropy =    10.2821

     25  H    Isotropic =    31.8468   Anisotropy =     8.2757

     26  H    Isotropic =    31.8699   Anisotropy =     7.4287

     27  H    Isotropic =    31.8693   Anisotropy =     6.8827

     28  H    Isotropic =    32.1544   Anisotropy =    10.5093

     29  H    Isotropic =    31.4548   Anisotropy =     9.7187

     30  H    Isotropic =    31.2106   Anisotropy =     8.2528

     31  H    Isotropic =    30.4995   Anisotropy =     6.7712

     32  H    Isotropic =    30.3819   Anisotropy =     7.0068

     33  H    Isotropic =    30.1306   Anisotropy =     9.4599

     34  H    Isotropic =    31.1613   Anisotropy =     7.4514

     35  H    Isotropic =    31.2249   Anisotropy =    12.1074

     36  H    Isotropic =    31.2470   Anisotropy =     6.7426

     37  C    Isotropic =   142.9007   Anisotropy =    31.7813

     38  C    Isotropic =    43.6366   Anisotropy =   184.6757

     39  C    Isotropic =    68.5146   Anisotropy =   138.3845

     40  H    Isotropic =    29.5911   Anisotropy =     5.2015

     41  H    Isotropic =    29.6361   Anisotropy =     5.1009

     42  H    Isotropic =    25.4994   Anisotropy =     7.5201

     43  H    Isotropic =    26.8905   Anisotropy =     7.0049

     44  H    Isotropic =    26.8091   Anisotropy =     7.1769

 The electronic state is 1-A.
 Alpha  occ. eigenvalues --  -66.27504 -19.25944 -19.20816 -19.19628 -10.37059
 Alpha  occ. eigenvalues --  -10.31790 -10.30515 -10.25290 -10.25130 -10.24379
 Alpha  occ. eigenvalues --  -10.24226 -10.23794 -10.22745 -10.22269 -10.22210
 Alpha  occ. eigenvalues --  -10.21080 -10.20876 -10.20743  -5.33239  -3.67128
 Alpha  occ. eigenvalues --   -3.66831  -3.66818  -1.13201  -1.04830  -1.04124
 Alpha  occ. eigenvalues --   -0.85911  -0.83085  -0.80782  -0.77557  -0.73989
 Alpha  occ. eigenvalues --   -0.72920  -0.71958  -0.70374  -0.70229  -0.66973
 Alpha  occ. eigenvalues --   -0.62792  -0.62528  -0.58708  -0.55818  -0.53331
 Alpha  occ. eigenvalues --   -0.52488  -0.50969  -0.49240  -0.48307  -0.47147
 Alpha  occ. eigenvalues --   -0.46302  -0.45349  -0.44741  -0.44233  -0.43754
 Alpha  occ. eigenvalues --   -0.42779  -0.42519  -0.42385  -0.41737  -0.41170
 Alpha  occ. eigenvalues --   -0.40716  -0.40435  -0.40189  -0.39755  -0.38912
 Alpha  occ. eigenvalues --   -0.37906  -0.37761  -0.37452  -0.36518  -0.36279
 Alpha  occ. eigenvalues --   -0.35604  -0.34263  -0.33445  -0.32190  -0.31126
 Alpha  occ. eigenvalues --   -0.30423  -0.29537  -0.28229  -0.26887
 Alpha virt. eigenvalues --    0.00492   0.00959   0.03772   0.05600   0.05790
 Alpha virt. eigenvalues --    0.06270   0.07472   0.08104   0.08542   0.09070
 Alpha virt. eigenvalues --    0.09461   0.09806   0.10379   0.10761   0.11376

 Mulliken charges:
               1
     1  C   -0.033933
     2  C   -0.307980
     3  C    0.194236
     4  C   -0.662781
     5  C    0.485354
     6  H    0.253407
     7  H    0.252169
     8  H    0.299650
     9  H    0.265482
    10  O   -0.328099
    11  O   -0.382983
    12  C   -0.445377
    13  C   -0.679751
    14  C   -0.686394
    15  O   -0.637724
    16  Si   1.434429
    17  C   -1.081471
    18  C   -1.064850
    19  C   -1.042317
    20  H    0.245496
    21  H    0.243664
    22  H    0.238425
    23  H    0.241107
    24  H    0.233359
    25  H    0.241384
    26  H    0.249195
    27  H    0.246465
    28  H    0.243788
    29  H    0.238804
    30  H    0.243190
    31  H    0.257546
    32  H    0.241498
    33  H    0.241995
    34  H    0.237092
    35  H    0.235104
    36  H    0.229355
    37  C   -0.487423
    38  C   -0.183473
    39  C   -0.456887
    40  H    0.266000
    41  H    0.248242
    42  H    0.228181
    43  H    0.225893
    44  H    0.220934
 Sum of Mulliken charges =   0.00000

 Dipole moment (field-independent basis, Debye):
    X=             -2.3740    Y=              2.6187    Z=              3.0928  Tot=              4.6967
 Quadrupole moment (field-independent basis, Debye-Ang):
   XX=           -116.3230   YY=           -124.1724   ZZ=           -126.8569
   XY=             10.8427   XZ=              9.7961   YZ=             -9.0728

 Normal termination of Gaussian 09 at Wed Feb  6 11:29:17 2019.
