 Gaussian 09, Revision D.01,
 Gaussian 09:  ES64L-G09RevD.01 24-Apr-2013

 ----------------------------------------------------------------------
 # mPW1PW91/6-311g(d) geom=checkpoint nmr=giao scrf=(solvent=chloroform
 )
 ----------------------------------------------------------------------

 -------------
 P_ng_4ginp001
 -------------
 Structure from the checkpoint file:  "/home/ke291/rds/hpc-work/06Feb0927IP1/P_ng_4ginp001.chk"
 Charge =  0 Multiplicity = 1

                         Standard orientation:
 ---------------------------------------------------------------------
 Center     Atomic      Atomic             Coordinates (Angstroms)
 Number     Number       Type             X           Y           Z
 ---------------------------------------------------------------------
      1          6           0       -2.358632    0.147914    0.302777
      2          6           0       -0.982900    0.262237    0.974847
      3          6           0        0.122638    0.124925   -0.107987
      4          6           0       -0.035737   -1.254757   -0.767594
      5          6           0       -1.454701   -1.645572   -1.151287
      6          1           0       -2.480572    0.984034   -0.394744
      7          1           0       -0.921374    1.285207    1.364304
      8          1           0        0.578260   -1.352796   -1.667022
      9          1           0        0.303081   -2.026601   -0.068014
     10          8           0       -2.489209   -1.066959   -0.506250
     11          8           0       -1.684384   -2.518213   -1.962619
     12          6           0       -3.552414    0.150966    1.255745
     13          6           0       -4.901468    0.240683    0.535686
     14          6           0       -0.797291   -0.710754    2.150396
     15          8           0        1.378728    0.249537    0.554480
     16         14           0        2.968770   -0.198933    0.229603
     17          6           0        3.214379   -2.061016    0.419803
     18          6           0        3.536519    0.329343   -1.492224
     19          6           0        3.957384    0.713678    1.543656
     20          1           0        4.600974    0.095737   -1.613342
     21          1           0        2.998268   -0.191277   -2.291392
     22          1           0        3.414890    1.406421   -1.647334
     23          1           0        5.025031    0.482921    1.457074
     24          1           0        3.839625    1.797994    1.447005
     25          1           0        3.634315    0.429745    2.550571
     26          1           0        4.283541   -2.298660    0.368926
     27          1           0        2.842511   -2.419256    1.385643
     28          1           0        2.714826   -2.632944   -0.368452
     29          1           0       -1.452465   -0.439523    2.981919
     30          1           0       -1.029339   -1.744852    1.875673
     31          1           0        0.232750   -0.673536    2.507826
     32          1           0       -3.432468    1.007101    1.931231
     33          1           0       -3.519341   -0.750614    1.876421
     34          1           0       -5.725304    0.239106    1.255637
     35          1           0       -4.974908    1.161013   -0.054531
     36          1           0       -5.040961   -0.605799   -0.141822
     37          6           0        0.028444    1.235832   -1.192821
     38          6           0        0.075279    2.638566   -0.653478
     39          6           0       -0.796304    3.602659   -0.955586
     40          1           0       -0.870695    1.099930   -1.803983
     41          1           0        0.878282    1.077640   -1.868410
     42          1           0        0.899588    2.856921    0.023695
     43          1           0       -0.701275    4.604831   -0.547819
     44          1           0       -1.632264    3.429162   -1.629987
 ---------------------------------------------------------------------

 SCF Done:  E(RmPW1PW91) =  -1064.38503366     A.U. after   12 cycles

      1  C    Isotropic =   104.2354   Anisotropy =    48.2270

      2  C    Isotropic =   145.6815   Anisotropy =    21.1535

      3  C    Isotropic =   108.0847   Anisotropy =    55.5027

      4  C    Isotropic =   144.3442   Anisotropy =    37.1203

      5  C    Isotropic =    13.2060   Anisotropy =    87.8808

      6  H    Isotropic =    27.9318   Anisotropy =     3.9193

      7  H    Isotropic =    30.2218   Anisotropy =     5.5245

      8  H    Isotropic =    29.7788   Anisotropy =     3.8550

      9  H    Isotropic =    29.4267   Anisotropy =     4.3992

     10  O    Isotropic =   110.7178   Anisotropy =   192.5717

     11  O    Isotropic =  -104.9712   Anisotropy =   569.9125

     12  C    Isotropic =   157.6626   Anisotropy =    19.9162

     13  C    Isotropic =   175.1576   Anisotropy =    22.7190

     14  C    Isotropic =   180.0468   Anisotropy =    12.5128

     15  O    Isotropic =   245.5707   Anisotropy =    20.8332

     16  Si   Isotropic =   332.7358   Anisotropy =    43.0954

     17  C    Isotropic =   185.4124   Anisotropy =    11.4309

     18  C    Isotropic =   185.9279   Anisotropy =     8.6177

     19  C    Isotropic =   186.8845   Anisotropy =    12.5910

     20  H    Isotropic =    32.1598   Anisotropy =    10.4863

     21  H    Isotropic =    31.8788   Anisotropy =     6.7676

     22  H    Isotropic =    31.8852   Anisotropy =     7.5934

     23  H    Isotropic =    32.3437   Anisotropy =    10.3176

     24  H    Isotropic =    31.9180   Anisotropy =     8.4741

     25  H    Isotropic =    31.8947   Anisotropy =     8.2787

     26  H    Isotropic =    32.2202   Anisotropy =    10.4459

     27  H    Isotropic =    31.8889   Anisotropy =     7.5574

     28  H    Isotropic =    31.8984   Anisotropy =     6.7585

     29  H    Isotropic =    31.1855   Anisotropy =    10.0349

     30  H    Isotropic =    31.4683   Anisotropy =     7.2032

     31  H    Isotropic =    30.7751   Anisotropy =     8.2325

     32  H    Isotropic =    30.7476   Anisotropy =     6.7148

     33  H    Isotropic =    30.3329   Anisotropy =     4.5904

     34  H    Isotropic =    30.9906   Anisotropy =    11.5527

     35  H    Isotropic =    31.2060   Anisotropy =     8.8417

     36  H    Isotropic =    30.6065   Anisotropy =     8.0173

     37  C    Isotropic =   140.6916   Anisotropy =    34.1704

     38  C    Isotropic =    46.4137   Anisotropy =   179.7144

     39  C    Isotropic =    65.7684   Anisotropy =   141.0155

     40  H    Isotropic =    29.7187   Anisotropy =     5.1410

     41  H    Isotropic =    29.5320   Anisotropy =     5.8563

     42  H    Isotropic =    25.7300   Anisotropy =     7.3791

     43  H    Isotropic =    26.7127   Anisotropy =     6.8669

     44  H    Isotropic =    26.7585   Anisotropy =     7.2098

 The electronic state is 1-A.
 Alpha  occ. eigenvalues --  -66.27470 -19.25896 -19.20731 -19.19657 -10.37078
 Alpha  occ. eigenvalues --  -10.31727 -10.30323 -10.25292 -10.25008 -10.24342
 Alpha  occ. eigenvalues --  -10.24313 -10.23739 -10.23022 -10.22292 -10.22058
 Alpha  occ. eigenvalues --  -10.21058 -10.20868 -10.20719  -5.33204  -3.67092
 Alpha  occ. eigenvalues --   -3.66797  -3.66785  -1.13160  -1.04840  -1.04062
 Alpha  occ. eigenvalues --   -0.85927  -0.82990  -0.80930  -0.77441  -0.74057
 Alpha  occ. eigenvalues --   -0.73204  -0.71369  -0.70344  -0.70215  -0.66623
 Alpha  occ. eigenvalues --   -0.63743  -0.62326  -0.58696  -0.54563  -0.53127
 Alpha  occ. eigenvalues --   -0.52788  -0.51209  -0.50441  -0.47874  -0.47264
 Alpha  occ. eigenvalues --   -0.46437  -0.45079  -0.44858  -0.44342  -0.43886
 Alpha  occ. eigenvalues --   -0.42768  -0.42603  -0.42503  -0.41574  -0.40962
 Alpha  occ. eigenvalues --   -0.40727  -0.40305  -0.39759  -0.39553  -0.38633
 Alpha  occ. eigenvalues --   -0.38321  -0.37909  -0.37093  -0.36673  -0.36393
 Alpha  occ. eigenvalues --   -0.35559  -0.34318  -0.33320  -0.32149  -0.31007
 Alpha  occ. eigenvalues --   -0.30347  -0.29525  -0.28305  -0.27244
 Alpha virt. eigenvalues --    0.00359   0.00890   0.03681   0.05569   0.06255
 Alpha virt. eigenvalues --    0.06579   0.07299   0.08014   0.08376   0.09084
 Alpha virt. eigenvalues --    0.09324   0.09774   0.10353   0.10715   0.11064

 Mulliken charges:
               1
     1  C   -0.051520
     2  C   -0.292912
     3  C    0.197033
     4  C   -0.662421
     5  C    0.479783
     6  H    0.258564
     7  H    0.255873
     8  H    0.268496
     9  H    0.306219
    10  O   -0.324816
    11  O   -0.381282
    12  C   -0.454467
    13  C   -0.664580
    14  C   -0.686514
    15  O   -0.639087
    16  Si   1.441952
    17  C   -1.070066
    18  C   -1.081345
    19  C   -1.044888
    20  H    0.243449
    21  H    0.245200
    22  H    0.247065
    23  H    0.232949
    24  H    0.241324
    25  H    0.241023
    26  H    0.239649
    27  H    0.244148
    28  H    0.245208
    29  H    0.243401
    30  H    0.229974
    31  H    0.263407
    32  H    0.237244
    33  H    0.242727
    34  H    0.229945
    35  H    0.222561
    36  H    0.239190
    37  C   -0.500680
    38  C   -0.182268
    39  C   -0.453906
    40  H    0.247223
    41  H    0.270588
    42  H    0.226000
    43  H    0.228085
    44  H    0.222475
 Sum of Mulliken charges =   0.00000

 Dipole moment (field-independent basis, Debye):
    X=              2.4296    Y=              3.2562    Z=              2.4826  Tot=              4.7612
 Quadrupole moment (field-independent basis, Debye-Ang):
   XX=           -116.0560   YY=           -126.8092   ZZ=           -123.7655
   XY=            -11.5941   XZ=             -8.6091   YZ=             -8.2506

 Normal termination of Gaussian 09 at Wed Feb  6 11:39:06 2019.
