 Gaussian 09, Revision D.01,
 Gaussian 09:  ES64L-G09RevD.01 24-Apr-2013

 ----------------------------------------------------------------------
 # mPW1PW91/6-311g(d) geom=checkpoint nmr=giao scrf=(solvent=chloroform
 )
 ----------------------------------------------------------------------

 -------------
 P_ng_3ginp005
 -------------
 Structure from the checkpoint file:  "/home/ke291/rds/hpc-work/06Feb0927IP1/P_ng_3ginp005.chk"
 Charge =  0 Multiplicity = 1

                         Standard orientation:
 ---------------------------------------------------------------------
 Center     Atomic      Atomic             Coordinates (Angstroms)
 Number     Number       Type             X           Y           Z
 ---------------------------------------------------------------------
      1          6           0       -2.147592   -0.780463   -0.774269
      2          6           0       -1.077048    0.236720   -1.205897
      3          6           0       -0.007613    0.495631   -0.105344
      4          6           0       -0.641742    0.276236    1.301666
      5          6           0       -2.153019    0.353754    1.380145
      6          1           0       -2.934313   -0.777540   -1.536723
      7          1           0       -1.629296    1.179005   -1.307853
      8          1           0       -0.375304   -0.734701    1.624890
      9          1           0       -0.238779    0.963912    2.047220
     10          8           0       -2.850325   -0.258052    0.399824
     11          8           0       -2.752122    0.883851    2.293655
     12          6           0       -1.713689   -2.233986   -0.559382
     13          6           0       -2.875766   -3.154548   -0.171861
     14          6           0       -0.482960   -0.099589   -2.577968
     15          8           0        1.048424   -0.446468   -0.282156
     16         14           0        2.638611   -0.582653    0.256935
     17          6           0        3.797028    0.537031   -0.726672
     18          6           0        2.810166   -0.211186    2.100974
     19          6           0        3.064773   -2.383122   -0.082874
     20          1           0        2.567015    0.827317    2.348631
     21          1           0        2.171645   -0.860814    2.708678
     22          1           0        3.847288   -0.384478    2.411743
     23          1           0        4.102692   -2.598035    0.194751
     24          1           0        2.418076   -3.058864    0.486344
     25          1           0        2.946924   -2.622161   -1.144951
     26          1           0        4.839088    0.313052   -0.469484
     27          1           0        3.680431    0.376937   -1.803855
     28          1           0        3.628650    1.599197   -0.524313
     29          1           0        0.162474    0.708570   -2.933143
     30          1           0        0.114463   -1.012082   -2.547432
     31          1           0       -1.282755   -0.228615   -3.314816
     32          1           0       -0.916025   -2.293849    0.186111
     33          1           0       -1.270818   -2.580435   -1.500025
     34          1           0       -2.530925   -4.187144   -0.062673
     35          1           0       -3.328194   -2.846331    0.774639
     36          1           0       -3.661229   -3.143222   -0.935893
     37          6           0        0.547470    1.943703   -0.224122
     38          6           0       -0.461648    3.039979   -0.010796
     39          6           0       -0.739701    3.998681   -0.896319
     40          1           0        1.022533    2.059178   -1.203717
     41          1           0        1.339591    2.045412    0.530239
     42          1           0       -0.982019    3.044772    0.947030
     43          1           0       -1.466137    4.776996   -0.682660
     44          1           0       -0.245396    4.043383   -1.864080
 ---------------------------------------------------------------------

 SCF Done:  E(RmPW1PW91) =  -1064.38196740     A.U. after   12 cycles

      1  C    Isotropic =    98.4298   Anisotropy =    49.2627

      2  C    Isotropic =   145.2051   Anisotropy =     7.0745

      3  C    Isotropic =   106.7368   Anisotropy =    49.0932

      4  C    Isotropic =   138.7579   Anisotropy =    30.5354

      5  C    Isotropic =    10.9309   Anisotropy =    97.9858

      6  H    Isotropic =    27.8898   Anisotropy =     4.6172

      7  H    Isotropic =    30.0030   Anisotropy =     6.5020

      8  H    Isotropic =    29.3766   Anisotropy =     2.2972

      9  H    Isotropic =    29.3247   Anisotropy =     4.6612

     10  O    Isotropic =    87.4545   Anisotropy =   203.2762

     11  O    Isotropic =  -101.6271   Anisotropy =   564.0175

     12  C    Isotropic =   162.6320   Anisotropy =    11.1255

     13  C    Isotropic =   175.5704   Anisotropy =    22.7589

     14  C    Isotropic =   176.5226   Anisotropy =    16.4154

     15  O    Isotropic =   233.0605   Anisotropy =    51.7695

     16  Si   Isotropic =   333.0973   Anisotropy =    42.0586

     17  C    Isotropic =   184.8937   Anisotropy =    12.7593

     18  C    Isotropic =   186.0992   Anisotropy =     9.1243

     19  C    Isotropic =   186.7854   Anisotropy =    11.9814

     20  H    Isotropic =    31.8620   Anisotropy =     6.8771

     21  H    Isotropic =    31.9002   Anisotropy =     7.3903

     22  H    Isotropic =    32.1489   Anisotropy =    10.5428

     23  H    Isotropic =    32.3450   Anisotropy =    10.4458

     24  H    Isotropic =    32.0172   Anisotropy =     7.9743

     25  H    Isotropic =    31.8881   Anisotropy =     7.9646

     26  H    Isotropic =    32.2535   Anisotropy =    10.3973

     27  H    Isotropic =    31.8910   Anisotropy =     7.7857

     28  H    Isotropic =    31.9234   Anisotropy =     6.6685

     29  H    Isotropic =    31.0543   Anisotropy =     8.4920

     30  H    Isotropic =    30.8935   Anisotropy =     5.7893

     31  H    Isotropic =    31.4551   Anisotropy =    10.8649

     32  H    Isotropic =    30.1520   Anisotropy =     8.5053

     33  H    Isotropic =    30.4744   Anisotropy =     5.1674

     34  H    Isotropic =    30.9827   Anisotropy =    10.8393

     35  H    Isotropic =    30.7827   Anisotropy =     7.8838

     36  H    Isotropic =    31.2363   Anisotropy =    10.2942

     37  C    Isotropic =   136.6810   Anisotropy =    28.6875

     38  C    Isotropic =    46.1304   Anisotropy =   175.3514

     39  C    Isotropic =    63.5445   Anisotropy =   143.9848

     40  H    Isotropic =    29.4812   Anisotropy =     3.8743

     41  H    Isotropic =    29.7325   Anisotropy =     5.3481

     42  H    Isotropic =    26.0628   Anisotropy =     6.8631

     43  H    Isotropic =    26.7759   Anisotropy =     6.8000

     44  H    Isotropic =    26.7372   Anisotropy =     7.4102

 The electronic state is 1-A.
 Alpha  occ. eigenvalues --  -66.27459 -19.25653 -19.20635 -19.19528 -10.36703
 Alpha  occ. eigenvalues --  -10.31969 -10.30105 -10.25060 -10.24902 -10.24557
 Alpha  occ. eigenvalues --  -10.24493 -10.23545 -10.23203 -10.22509 -10.22084
 Alpha  occ. eigenvalues --  -10.21091 -10.20839 -10.20731  -5.33193  -3.67080
 Alpha  occ. eigenvalues --   -3.66789  -3.66772  -1.13037  -1.04697  -1.03959
 Alpha  occ. eigenvalues --   -0.85677  -0.82947  -0.80103  -0.78128  -0.73883
 Alpha  occ. eigenvalues --   -0.73028  -0.71722  -0.70394  -0.70167  -0.66429
 Alpha  occ. eigenvalues --   -0.64021  -0.62215  -0.58112  -0.54530  -0.54117
 Alpha  occ. eigenvalues --   -0.52009  -0.50841  -0.49308  -0.48833  -0.46635
 Alpha  occ. eigenvalues --   -0.46371  -0.45575  -0.44450  -0.44183  -0.43372
 Alpha  occ. eigenvalues --   -0.43192  -0.42531  -0.42032  -0.41425  -0.41243
 Alpha  occ. eigenvalues --   -0.40777  -0.40382  -0.40149  -0.39744  -0.39310
 Alpha  occ. eigenvalues --   -0.38403  -0.38104  -0.37019  -0.36596  -0.35601
 Alpha  occ. eigenvalues --   -0.35125  -0.34652  -0.33443  -0.32268  -0.30720
 Alpha  occ. eigenvalues --   -0.30124  -0.29832  -0.28127  -0.27063
 Alpha virt. eigenvalues --   -0.00341   0.01634   0.03748   0.05562   0.06179
 Alpha virt. eigenvalues --    0.06536   0.06955   0.08133   0.08351   0.09005
 Alpha virt. eigenvalues --    0.09324   0.09903   0.10313   0.10858   0.11712

 Mulliken charges:
               1
     1  C   -0.036384
     2  C   -0.330893
     3  C    0.280950
     4  C   -0.704612
     5  C    0.501618
     6  H    0.246313
     7  H    0.266932
     8  H    0.301556
     9  H    0.274850
    10  O   -0.323403
    11  O   -0.385327
    12  C   -0.451562
    13  C   -0.660029
    14  C   -0.663354
    15  O   -0.633647
    16  Si   1.422991
    17  C   -1.060166
    18  C   -1.069734
    19  C   -1.041353
    20  H    0.248424
    21  H    0.246143
    22  H    0.241820
    23  H    0.232722
    24  H    0.239580
    25  H    0.240408
    26  H    0.236868
    27  H    0.242360
    28  H    0.244783
    29  H    0.235017
    30  H    0.251780
    31  H    0.231123
    32  H    0.244297
    33  H    0.240765
    34  H    0.228504
    35  H    0.236236
    36  H    0.223388
    37  C   -0.547164
    38  C   -0.198259
    39  C   -0.446010
    40  H    0.258945
    41  H    0.253939
    42  H    0.225271
    43  H    0.231563
    44  H    0.222749
 Sum of Mulliken charges =   0.00000

 Dipole moment (field-independent basis, Debye):
    X=              4.4964    Y=             -1.0722    Z=             -3.1609  Tot=              5.5999
 Quadrupole moment (field-independent basis, Debye-Ang):
   XX=           -129.6393   YY=           -116.1836   ZZ=           -122.4754
   XY=              3.8665   XZ=             13.8095   YZ=             -4.3499

 Normal termination of Gaussian 09 at Wed Feb  6 11:21:43 2019.
