 Gaussian 09, Revision D.01,
 Gaussian 09:  EM64L-G09RevD.01 24-Apr-2013

 ----------------------------------------------------------------------
 # mPW1PW91/6-311g(d) geom=checkpoint nmr=giao scrf=(solvent=chloroform
 )
 ----------------------------------------------------------------------

 --------------------
 P_ng_correct1ginp015
 --------------------
 Structure from the checkpoint file:  "P_ng_correct1ginp015.chk"
 Charge =  0 Multiplicity = 1

                         Standard orientation:
 ---------------------------------------------------------------------
 Center     Atomic      Atomic             Coordinates (Angstroms)
 Number     Number       Type             X           Y           Z
 ---------------------------------------------------------------------
      1          6           0       -2.537159    0.117069   -0.609440
      2          6           0       -1.161276   -0.527349   -0.832819
      3          6           0       -0.013502    0.388107   -0.315263
      4          6           0       -0.284156    0.611722    1.181381
      5          6           0       -1.681885    1.099987    1.513506
      6          1           0       -2.656342    0.941415   -1.323278
      7          1           0       -1.096913   -1.432542   -0.216234
      8          1           0       -0.173603   -0.345262    1.706143
      9          1           0        0.420414    1.307584    1.637881
     10          8           0       -2.699611    0.732604    0.709203
     11          8           0       -1.927366    1.748853    2.508986
     12          6           0       -3.741240   -0.819454   -0.770237
     13          6           0       -3.755510   -2.035035    0.161468
     14          6           0       -0.998077   -0.946608   -2.301156
     15          8           0        1.217394   -0.283624   -0.539125
     16         14           0        2.413389   -1.052500    0.354781
     17          6           0        1.751043   -2.593234    1.224999
     18          6           0        3.673659   -1.555200   -0.947857
     19          6           0        3.214090    0.100176    1.616090
     20          1           0        3.230518   -2.230972   -1.686769
     21          1           0        4.059806   -0.680799   -1.481602
     22          1           0        4.524509   -2.071539   -0.489475
     23          1           0        3.504996    1.046740    1.149973
     24          1           0        2.554776    0.327291    2.459811
     25          1           0        4.118750   -0.366329    2.023496
     26          1           0        1.042131   -2.359672    2.026330
     27          1           0        1.251382   -3.264713    0.518542
     28          1           0        2.579875   -3.148874    1.679676
     29          1           0       -1.659533   -1.781699   -2.546377
     30          1           0       -1.229719   -0.127288   -2.989883
     31          1           0        0.030146   -1.264975   -2.482859
     32          1           0       -3.787313   -1.140106   -1.816624
     33          1           0       -4.638340   -0.215268   -0.595626
     34          1           0       -4.696359   -2.582641    0.053503
     35          1           0       -2.943229   -2.734763   -0.058532
     36          1           0       -3.666391   -1.727729    1.207711
     37          6           0        0.060110    1.733274   -1.092002
     38          6           0        1.136824    2.678677   -0.631802
     39          6           0        2.190356    3.040629   -1.365692
     40          1           0       -0.910577    2.240664   -1.011077
     41          1           0        0.215474    1.500652   -2.149433
     42          1           0        1.018402    3.111798    0.361104
     43          1           0        2.928694    3.745655   -0.994897
     44          1           0        2.348003    2.649136   -2.367999
 ---------------------------------------------------------------------

 SCF Done:  E(RmPW1PW91) =  -1064.38255021     A.U. after   12 cycles

      1  C    Isotropic =   101.9507   Anisotropy =    60.0897

      2  C    Isotropic =   143.5702   Anisotropy =    21.0033

      3  C    Isotropic =   108.1327   Anisotropy =    50.5362

      4  C    Isotropic =   143.3466   Anisotropy =    33.1523

      5  C    Isotropic =    12.8282   Anisotropy =    88.5175

      6  H    Isotropic =    27.8705   Anisotropy =     2.1992

      7  H    Isotropic =    30.0623   Anisotropy =     4.1767

      8  H    Isotropic =    29.6859   Anisotropy =     4.8562

      9  H    Isotropic =    29.2049   Anisotropy =     4.1690

     10  O    Isotropic =    97.5839   Anisotropy =   165.8649

     11  O    Isotropic =  -108.4591   Anisotropy =   560.5824

     12  C    Isotropic =   160.4046   Anisotropy =    20.9923

     13  C    Isotropic =   181.3500   Anisotropy =    11.4354

     14  C    Isotropic =   177.4402   Anisotropy =    18.2146

     15  O    Isotropic =   246.8593   Anisotropy =    24.6956

     16  Si   Isotropic =   334.2830   Anisotropy =    40.7180

     17  C    Isotropic =   185.4997   Anisotropy =    11.6999

     18  C    Isotropic =   187.0559   Anisotropy =    12.1755

     19  C    Isotropic =   185.1030   Anisotropy =    11.8123

     20  H    Isotropic =    31.9802   Anisotropy =     8.2096

     21  H    Isotropic =    31.9457   Anisotropy =     8.2213

     22  H    Isotropic =    32.4292   Anisotropy =    10.3988

     23  H    Isotropic =    31.8093   Anisotropy =     7.8314

     24  H    Isotropic =    31.9943   Anisotropy =     6.5463

     25  H    Isotropic =    32.2901   Anisotropy =    10.5203

     26  H    Isotropic =    32.0421   Anisotropy =     6.5085

     27  H    Isotropic =    31.9943   Anisotropy =     7.5349

     28  H    Isotropic =    32.2193   Anisotropy =    10.4941

     29  H    Isotropic =    31.3095   Anisotropy =     9.5700

     30  H    Isotropic =    31.5636   Anisotropy =     8.8167

     31  H    Isotropic =    30.4818   Anisotropy =     7.4929

     32  H    Isotropic =    30.3961   Anisotropy =     7.3379

     33  H    Isotropic =    30.1250   Anisotropy =     9.7397

     34  H    Isotropic =    31.2086   Anisotropy =    12.0294

     35  H    Isotropic =    31.2094   Anisotropy =     6.6294

     36  H    Isotropic =    31.1357   Anisotropy =     7.2065

     37  C    Isotropic =   146.5690   Anisotropy =    14.7877

     38  C    Isotropic =    46.5890   Anisotropy =   177.8262

     39  C    Isotropic =    63.5528   Anisotropy =   143.0582

     40  H    Isotropic =    30.0029   Anisotropy =     5.4760

     41  H    Isotropic =    29.8148   Anisotropy =     5.1300

     42  H    Isotropic =    25.8208   Anisotropy =     5.8666

     43  H    Isotropic =    26.6536   Anisotropy =     6.4217

     44  H    Isotropic =    26.6938   Anisotropy =     7.1394

 The electronic state is 1-A.
 Alpha  occ. eigenvalues --  -66.27346 -19.26004 -19.20488 -19.19739 -10.37133
 Alpha  occ. eigenvalues --  -10.31829 -10.30674 -10.25364 -10.25306 -10.24152
 Alpha  occ. eigenvalues --  -10.24100 -10.23917 -10.22764 -10.22708 -10.22365
 Alpha  occ. eigenvalues --  -10.20910 -10.20662 -10.20558  -5.33066  -3.66958
 Alpha  occ. eigenvalues --   -3.66657  -3.66646  -1.13291  -1.04924  -1.04013
 Alpha  occ. eigenvalues --   -0.85952  -0.83246  -0.80597  -0.77732  -0.74000
 Alpha  occ. eigenvalues --   -0.72683  -0.72123  -0.70237  -0.70043  -0.67045
 Alpha  occ. eigenvalues --   -0.62947  -0.62675  -0.58552  -0.55682  -0.54020
 Alpha  occ. eigenvalues --   -0.52665  -0.50347  -0.49450  -0.48317  -0.47368
 Alpha  occ. eigenvalues --   -0.47092  -0.45293  -0.44347  -0.44246  -0.43590
 Alpha  occ. eigenvalues --   -0.42971  -0.42396  -0.42204  -0.41592  -0.41212
 Alpha  occ. eigenvalues --   -0.40713  -0.40378  -0.39832  -0.39517  -0.39377
 Alpha  occ. eigenvalues --   -0.38427  -0.37551  -0.36879  -0.36654  -0.36119
 Alpha  occ. eigenvalues --   -0.35638  -0.34205  -0.33532  -0.32374  -0.31194
 Alpha  occ. eigenvalues --   -0.30541  -0.28487  -0.28427  -0.27296
 Alpha virt. eigenvalues --    0.00239   0.01045   0.03855   0.05550   0.05909
 Alpha virt. eigenvalues --    0.06252   0.07608   0.08325   0.08436   0.08928
 Alpha virt. eigenvalues --    0.09296   0.09665   0.10350   0.10802   0.11782

 Mulliken charges:
               1
     1  C   -0.034890
     2  C   -0.311317
     3  C    0.215287
     4  C   -0.676342
     5  C    0.479358
     6  H    0.251703
     7  H    0.260616
     8  H    0.284920
     9  H    0.283097
    10  O   -0.327836
    11  O   -0.381158
    12  C   -0.441446
    13  C   -0.680699
    14  C   -0.684863
    15  O   -0.637724
    16  Si   1.441654
    17  C   -1.068958
    18  C   -1.041066
    19  C   -1.067348
    20  H    0.239405
    21  H    0.241300
    22  H    0.231266
    23  H    0.248836
    24  H    0.240663
    25  H    0.236484
    26  H    0.245218
    27  H    0.242041
    28  H    0.240107
    29  H    0.243289
    30  H    0.231006
    31  H    0.261759
    32  H    0.240872
    33  H    0.242612
    34  H    0.235926
    35  H    0.228528
    36  H    0.237193
    37  C   -0.493845
    38  C   -0.173098
    39  C   -0.456422
    40  H    0.251116
    41  H    0.258740
    42  H    0.218379
    43  H    0.225340
    44  H    0.220296
 Sum of Mulliken charges =   0.00000

 Dipole moment (field-independent basis, Debye):
    X=              1.6427    Y=             -3.0362    Z=             -3.3645  Tot=              4.8205
 Quadrupole moment (field-independent basis, Debye-Ang):
   XX=           -119.3591   YY=           -121.5780   ZZ=           -126.1278
   XY=              7.5128   XZ=             13.3964   YZ=             -7.3774

 Normal termination of Gaussian 09 at Wed Feb  6 15:17:17 2019.
