 Gaussian 09, Revision D.01,
 Gaussian 09:  ES64L-G09RevD.01 24-Apr-2013

 ----------------------------------------------------------------------
 # mPW1PW91/6-311g(d) geom=checkpoint nmr=giao scrf=(solvent=chloroform
 )
 ----------------------------------------------------------------------

 --------------------
 P_ng_correct1ginp002
 --------------------
 Structure from the checkpoint file:  "/home/ke291/rds/hpc-work/06Feb0927IP1/P_ng_correct1ginp002.chk"
 Charge =  0 Multiplicity = 1

                         Standard orientation:
 ---------------------------------------------------------------------
 Center     Atomic      Atomic             Coordinates (Angstroms)
 Number     Number       Type             X           Y           Z
 ---------------------------------------------------------------------
      1          6           0        2.416911   -0.252933    0.576080
      2          6           0        0.967211   -0.723753    0.765246
      3          6           0       -0.039320    0.409065    0.417834
      4          6           0        0.225230    0.813782   -1.040157
      5          6           0        1.675678    1.107729   -1.374685
      6          1           0        2.661910    0.450336    1.381428
      7          1           0        0.763737   -1.519939    0.039033
      8          1           0       -0.067100   -0.008124   -1.704923
      9          1           0       -0.358588    1.689437   -1.328873
     10          8           0        2.642413    0.492251   -0.662829
     11          8           0        1.999114    1.821390   -2.301023
     12          6           0        3.478918   -1.359779    0.581399
     13          6           0        3.308916   -2.436215   -0.494611
     14          6           0        0.774297   -1.308124    2.172773
     15          8           0       -1.367910   -0.074189    0.594209
     16         14           0       -2.506861   -0.901313   -0.327368
     17          6           0       -3.244426    0.212929   -1.659867
     18          6           0       -1.801806   -2.465347   -1.118286
     19          6           0       -3.831978   -1.362881    0.924857
     20          1           0       -1.043316   -2.257785   -1.880345
     21          1           0       -1.354957   -3.127889   -0.369442
     22          1           0       -2.608765   -3.021177   -1.610531
     23          1           0       -4.662223   -1.887008    0.438505
     24          1           0       -3.430557   -2.019690    1.703618
     25          1           0       -4.239809   -0.472762    1.414999
     26          1           0       -3.621338    1.145671   -1.227001
     27          1           0       -2.523587    0.474587   -2.440853
     28          1           0       -4.087579   -0.292045   -2.145743
     29          1           0        1.294781   -2.263896    2.275464
     30          1           0        1.156138   -0.638360    2.950537
     31          1           0       -0.286925   -1.478992    2.364096
     32          1           0        3.493329   -1.814435    1.577854
     33          1           0        4.449885   -0.868089    0.455252
     34          1           0        4.161986   -3.120984   -0.482446
     35          1           0        2.406440   -3.036256   -0.341495
     36          1           0        3.254716   -1.987762   -1.490997
     37          6           0        0.098391    1.636310    1.360067
     38          6           0       -0.897190    2.730778    1.087702
     39          6           0       -0.579626    3.987760    0.773127
     40          1           0        1.113129    2.044126    1.292654
     41          1           0       -0.039674    1.277010    2.387017
     42          1           0       -1.944497    2.447569    1.172217
     43          1           0       -1.342037    4.742123    0.601458
     44          1           0        0.454799    4.311167    0.679960
 ---------------------------------------------------------------------

 SCF Done:  E(RmPW1PW91) =  -1064.38454260     A.U. after   12 cycles

      1  C    Isotropic =   102.5774   Anisotropy =    60.0332

      2  C    Isotropic =   145.3101   Anisotropy =    17.7713

      3  C    Isotropic =   107.6960   Anisotropy =    55.0297

      4  C    Isotropic =   143.1629   Anisotropy =    31.7033

      5  C    Isotropic =    12.8413   Anisotropy =    88.7920

      6  H    Isotropic =    27.8632   Anisotropy =     2.3001

      7  H    Isotropic =    30.0439   Anisotropy =     3.2626

      8  H    Isotropic =    29.8783   Anisotropy =     4.8733

      9  H    Isotropic =    29.2573   Anisotropy =     3.5197

     10  O    Isotropic =    97.1860   Anisotropy =   165.1043

     11  O    Isotropic =  -106.9247   Anisotropy =   562.5350

     12  C    Isotropic =   160.4793   Anisotropy =    20.7601

     13  C    Isotropic =   181.4571   Anisotropy =    11.3670

     14  C    Isotropic =   177.5093   Anisotropy =    18.0710

     15  O    Isotropic =   248.2761   Anisotropy =    25.1148

     16  Si   Isotropic =   333.8282   Anisotropy =    40.4106

     17  C    Isotropic =   185.4638   Anisotropy =    12.1722

     18  C    Isotropic =   186.1288   Anisotropy =     9.3710

     19  C    Isotropic =   186.9857   Anisotropy =    12.2135

     20  H    Isotropic =    31.9637   Anisotropy =     6.3711

     21  H    Isotropic =    31.9432   Anisotropy =     7.1889

     22  H    Isotropic =    32.1659   Anisotropy =    10.6541

     23  H    Isotropic =    32.3492   Anisotropy =    10.3059

     24  H    Isotropic =    31.9293   Anisotropy =     8.1656

     25  H    Isotropic =    31.8838   Anisotropy =     8.6316

     26  H    Isotropic =    31.8813   Anisotropy =     8.1796

     27  H    Isotropic =    31.9522   Anisotropy =     6.6199

     28  H    Isotropic =    32.2569   Anisotropy =    10.4320

     29  H    Isotropic =    31.2859   Anisotropy =     9.4083

     30  H    Isotropic =    31.5510   Anisotropy =     8.9826

     31  H    Isotropic =    30.5233   Anisotropy =     7.5282

     32  H    Isotropic =    30.4131   Anisotropy =     7.2882

     33  H    Isotropic =    30.1283   Anisotropy =     9.8783

     34  H    Isotropic =    31.2055   Anisotropy =    12.0452

     35  H    Isotropic =    31.2296   Anisotropy =     6.7675

     36  H    Isotropic =    31.1303   Anisotropy =     7.1645

     37  C    Isotropic =   146.2520   Anisotropy =    15.3103

     38  C    Isotropic =    45.6207   Anisotropy =   178.9168

     39  C    Isotropic =    64.7983   Anisotropy =   140.9732

     40  H    Isotropic =    30.2009   Anisotropy =     6.2792

     41  H    Isotropic =    29.5704   Anisotropy =     4.2024

     42  H    Isotropic =    25.7272   Anisotropy =     7.2973

     43  H    Isotropic =    26.6924   Anisotropy =     6.8855

     44  H    Isotropic =    26.7992   Anisotropy =     7.4527

 The electronic state is 1-A.
 Alpha  occ. eigenvalues --  -66.27481 -19.25917 -19.20691 -19.19572 -10.36981
 Alpha  occ. eigenvalues --  -10.31725 -10.30657 -10.25339 -10.25082 -10.24061
 Alpha  occ. eigenvalues --  -10.23961 -10.23907 -10.22816 -10.22688 -10.22359
 Alpha  occ. eigenvalues --  -10.21137 -10.20793 -10.20724  -5.33213  -3.67101
 Alpha  occ. eigenvalues --   -3.66808  -3.66790  -1.13175  -1.04797  -1.04059
 Alpha  occ. eigenvalues --   -0.85957  -0.83245  -0.80445  -0.77666  -0.74144
 Alpha  occ. eigenvalues --   -0.72653  -0.72153  -0.70430  -0.70174  -0.66985
 Alpha  occ. eigenvalues --   -0.62881  -0.62554  -0.58509  -0.55814  -0.53746
 Alpha  occ. eigenvalues --   -0.52420  -0.50299  -0.49426  -0.48909  -0.47602
 Alpha  occ. eigenvalues --   -0.45994  -0.45064  -0.44788  -0.44336  -0.43566
 Alpha  occ. eigenvalues --   -0.43155  -0.42591  -0.42354  -0.41403  -0.41086
 Alpha  occ. eigenvalues --   -0.40754  -0.40469  -0.39759  -0.39627  -0.39133
 Alpha  occ. eigenvalues --   -0.38087  -0.37806  -0.37264  -0.36664  -0.36023
 Alpha  occ. eigenvalues --   -0.35873  -0.34217  -0.33622  -0.32544  -0.31072
 Alpha  occ. eigenvalues --   -0.30657  -0.28779  -0.28218  -0.27225
 Alpha virt. eigenvalues --    0.00317   0.01331   0.03633   0.05532   0.05837
 Alpha virt. eigenvalues --    0.06522   0.07621   0.08022   0.08334   0.08782
 Alpha virt. eigenvalues --    0.09615   0.09887   0.10398   0.11012   0.11304

 Mulliken charges:
               1
     1  C   -0.033551
     2  C   -0.321503
     3  C    0.191041
     4  C   -0.632759
     5  C    0.474840
     6  H    0.251811
     7  H    0.272358
     8  H    0.277176
     9  H    0.286763
    10  O   -0.328899
    11  O   -0.382148
    12  C   -0.441710
    13  C   -0.681990
    14  C   -0.687167
    15  O   -0.639010
    16  Si   1.430567
    17  C   -1.060748
    18  C   -1.081350
    19  C   -1.044520
    20  H    0.249089
    21  H    0.245034
    22  H    0.244473
    23  H    0.232906
    24  H    0.241356
    25  H    0.240796
    26  H    0.243841
    27  H    0.245942
    28  H    0.236435
    29  H    0.243645
    30  H    0.232324
    31  H    0.260994
    32  H    0.240884
    33  H    0.242506
    34  H    0.235947
    35  H    0.228133
    36  H    0.237688
    37  C   -0.494962
    38  C   -0.188903
    39  C   -0.450969
    40  H    0.247945
    41  H    0.261081
    42  H    0.225738
    43  H    0.226024
    44  H    0.222852
 Sum of Mulliken charges =   0.00000

 Dipole moment (field-independent basis, Debye):
    X=             -2.0598    Y=             -3.6938    Z=              3.1614  Tot=              5.2803
 Quadrupole moment (field-independent basis, Debye-Ang):
   XX=           -119.7254   YY=           -120.1562   ZZ=           -126.8767
   XY=             -6.8112   XZ=             13.5077   YZ=              6.5964

 Normal termination of Gaussian 09 at Wed Feb  6 11:32:24 2019.
