 Gaussian 09, Revision D.01,
 Gaussian 09:  EM64L-G09RevD.01 24-Apr-2013

 ----------------------------------------------------------------------
 # mPW1PW91/6-311g(d) geom=checkpoint nmr=giao scrf=(solvent=chloroform
 )
 ----------------------------------------------------------------------

 -------------
 P_ng_2ginp018
 -------------
 Structure from the checkpoint file:  "P_ng_2ginp018.chk"
 Charge =  0 Multiplicity = 1

                         Standard orientation:
 ---------------------------------------------------------------------
 Center     Atomic      Atomic             Coordinates (Angstroms)
 Number     Number       Type             X           Y           Z
 ---------------------------------------------------------------------
      1          6           0       -2.313998   -0.552404   -0.369095
      2          6           0       -0.840825   -0.935031   -0.590670
      3          6           0        0.097988    0.290148   -0.398469
      4          6           0       -0.130545    0.811491    1.027090
      5          6           0       -1.581536    1.071038    1.381537
      6          1           0       -2.674791    0.000141   -1.246345
      7          1           0       -0.558266   -1.648618    0.195155
      8          1           0        0.223982    0.066591    1.749808
      9          1           0        0.419544    1.735372    1.213401
     10          8           0       -2.536917    0.350884    0.759485
     11          8           0       -1.914128    1.859363    2.241741
     12          6           0       -3.233860   -1.751649   -0.126581
     13          6           0       -4.713886   -1.378203    0.000131
     14          6           0       -0.659989   -1.630908   -1.948787
     15          8           0        1.449724   -0.114270   -0.597113
     16         14           0        2.676561   -0.786732    0.338523
     17          6           0        3.983534   -1.259518   -0.928856
     18          6           0        3.379736    0.479713    1.547107
     19          6           0        2.109621   -2.325308    1.276576
     20          1           0        4.270915    0.074127    2.040350
     21          1           0        3.677269    1.395936    1.026144
     22          1           0        2.667770    0.756392    2.330905
     23          1           0        2.965619   -2.771753    1.796404
     24          1           0        1.348739   -2.111051    2.034382
     25          1           0        1.705147   -3.083219    0.597392
     26          1           0        4.863876   -1.690941   -0.439484
     27          1           0        3.597467   -1.999709   -1.637392
     28          1           0        4.313800   -0.387066   -1.502116
     29          1           0        0.403314   -1.740304   -2.170908
     30          1           0       -1.107538   -2.627709   -1.946213
     31          1           0       -1.120843   -1.063138   -2.763695
     32          1           0       -2.893670   -2.267616    0.780083
     33          1           0       -3.105097   -2.453570   -0.957106
     34          1           0       -4.878964   -0.696844    0.838202
     35          1           0       -5.075972   -0.887300   -0.910205
     36          1           0       -5.323560   -2.272247    0.161621
     37          6           0       -0.172125    1.407835   -1.442443
     38          6           0        0.738933    2.598166   -1.313391
     39          6           0        0.330335    3.850138   -1.100351
     40          1           0       -1.214432    1.738291   -1.372042
     41          1           0       -0.038804    0.963423   -2.436008
     42          1           0        1.802427    2.391036   -1.415229
     43          1           0        1.033738    4.674742   -1.029252
     44          1           0       -0.723259    4.098427   -0.992872
 ---------------------------------------------------------------------

 SCF Done:  E(RmPW1PW91) =  -1064.38514135     A.U. after   12 cycles

      1  C    Isotropic =   100.1398   Anisotropy =    50.2233

      2  C    Isotropic =   140.4646   Anisotropy =    22.6045

      3  C    Isotropic =   107.8164   Anisotropy =    55.4174

      4  C    Isotropic =   142.9992   Anisotropy =    31.2211

      5  C    Isotropic =    13.8848   Anisotropy =    86.6947

      6  H    Isotropic =    28.1595   Anisotropy =     2.1100

      7  H    Isotropic =    30.2630   Anisotropy =     4.8427

      8  H    Isotropic =    29.8789   Anisotropy =     5.1620

      9  H    Isotropic =    29.2487   Anisotropy =     3.3808

     10  O    Isotropic =   100.0550   Anisotropy =   189.8334

     11  O    Isotropic =  -104.3949   Anisotropy =   558.7499

     12  C    Isotropic =   156.0744   Anisotropy =    24.8853

     13  C    Isotropic =   175.5922   Anisotropy =    21.9326

     14  C    Isotropic =   176.6548   Anisotropy =    19.3308

     15  O    Isotropic =   248.5829   Anisotropy =    23.3604

     16  Si   Isotropic =   333.4847   Anisotropy =    40.6237

     17  C    Isotropic =   186.9260   Anisotropy =    12.2567

     18  C    Isotropic =   185.3914   Anisotropy =    12.2422

     19  C    Isotropic =   186.0330   Anisotropy =     9.3306

     20  H    Isotropic =    32.2591   Anisotropy =    10.4544

     21  H    Isotropic =    31.8733   Anisotropy =     8.1173

     22  H    Isotropic =    31.9430   Anisotropy =     6.6099

     23  H    Isotropic =    32.1920   Anisotropy =    10.6442

     24  H    Isotropic =    31.9837   Anisotropy =     6.3481

     25  H    Isotropic =    31.9593   Anisotropy =     7.2567

     26  H    Isotropic =    32.3504   Anisotropy =    10.3008

     27  H    Isotropic =    31.9376   Anisotropy =     8.1730

     28  H    Isotropic =    31.8843   Anisotropy =     8.5946

     29  H    Isotropic =    30.4726   Anisotropy =     7.3946

     30  H    Isotropic =    31.2257   Anisotropy =     9.5014

     31  H    Isotropic =    31.5123   Anisotropy =     8.6004

     32  H    Isotropic =    30.6386   Anisotropy =     5.0475

     33  H    Isotropic =    30.3218   Anisotropy =     5.5956

     34  H    Isotropic =    30.5072   Anisotropy =     7.8724

     35  H    Isotropic =    31.1917   Anisotropy =     9.2702

     36  H    Isotropic =    31.0077   Anisotropy =    11.4028

     37  C    Isotropic =   146.1404   Anisotropy =    15.8457

     38  C    Isotropic =    45.7164   Anisotropy =   178.8125

     39  C    Isotropic =    64.8800   Anisotropy =   140.9313

     40  H    Isotropic =    30.2253   Anisotropy =     5.9547

     41  H    Isotropic =    29.5549   Anisotropy =     4.0162

     42  H    Isotropic =    25.7420   Anisotropy =     7.2002

     43  H    Isotropic =    26.6994   Anisotropy =     6.8471

     44  H    Isotropic =    26.7978   Anisotropy =     7.3730

 The electronic state is 1-A.
 Alpha  occ. eigenvalues --  -66.27489 -19.25922 -19.20715 -19.19560 -10.37002
 Alpha  occ. eigenvalues --  -10.31737 -10.30698 -10.25457 -10.25085 -10.24054
 Alpha  occ. eigenvalues --  -10.23953 -10.23898 -10.22810 -10.22677 -10.22090
 Alpha  occ. eigenvalues --  -10.21148 -10.20806 -10.20735  -5.33223  -3.67111
 Alpha  occ. eigenvalues --   -3.66817  -3.66800  -1.13203  -1.04802  -1.04070
 Alpha  occ. eigenvalues --   -0.85947  -0.83297  -0.80512  -0.77790  -0.74168
 Alpha  occ. eigenvalues --   -0.72494  -0.71964  -0.70443  -0.70192  -0.66500
 Alpha  occ. eigenvalues --   -0.63941  -0.61926  -0.58541  -0.56291  -0.53760
 Alpha  occ. eigenvalues --   -0.52098  -0.49999  -0.49309  -0.48933  -0.47690
 Alpha  occ. eigenvalues --   -0.46209  -0.45155  -0.44955  -0.44330  -0.43550
 Alpha  occ. eigenvalues --   -0.42723  -0.42438  -0.42076  -0.41412  -0.41394
 Alpha  occ. eigenvalues --   -0.40879  -0.40579  -0.39769  -0.39569  -0.38701
 Alpha  occ. eigenvalues --   -0.38432  -0.37900  -0.37162  -0.36555  -0.36122
 Alpha  occ. eigenvalues --   -0.35667  -0.34245  -0.33634  -0.32583  -0.31029
 Alpha  occ. eigenvalues --   -0.30697  -0.28809  -0.28232  -0.27213
 Alpha virt. eigenvalues --    0.00398   0.01348   0.03796   0.05859   0.05956
 Alpha virt. eigenvalues --    0.06677   0.07667   0.07866   0.08050   0.08877
 Alpha virt. eigenvalues --    0.09736   0.09838   0.10123   0.10625   0.11186

 Mulliken charges:
               1
     1  C   -0.027887
     2  C   -0.302462
     3  C    0.184248
     4  C   -0.630557
     5  C    0.474141
     6  H    0.244537
     7  H    0.255920
     8  H    0.276338
     9  H    0.287278
    10  O   -0.329423
    11  O   -0.382723
    12  C   -0.438771
    13  C   -0.664231
    14  C   -0.685650
    15  O   -0.638210
    16  Si   1.430891
    17  C   -1.044608
    18  C   -1.060714
    19  C   -1.077634
    20  H    0.236606
    21  H    0.244095
    22  H    0.245905
    23  H    0.243669
    24  H    0.247567
    25  H    0.245310
    26  H    0.233009
    27  H    0.241511
    28  H    0.241029
    29  H    0.261800
    30  H    0.242022
    31  H    0.232430
    32  H    0.229400
    33  H    0.241774
    34  H    0.240856
    35  H    0.222901
    36  H    0.229375
    37  C   -0.494121
    38  C   -0.189807
    39  C   -0.450215
    40  H    0.248665
    41  H    0.261338
    42  H    0.225270
    43  H    0.226007
    44  H    0.223123
 Sum of Mulliken charges =   0.00000

 Dipole moment (field-independent basis, Debye):
    X=              2.2500    Y=             -3.9593    Z=             -2.7841  Tot=              5.3375
 Quadrupole moment (field-independent basis, Debye-Ang):
   XX=           -119.7251   YY=           -120.1535   ZZ=           -126.6182
   XY=              7.4035   XZ=             12.5146   YZ=             -6.8492

 Normal termination of Gaussian 09 at Wed Feb  6 17:04:56 2019.
