 Gaussian 09, Revision D.01,
 Gaussian 09:  ES64L-G09RevD.01 24-Apr-2013

 ----------------------------------------------------------------------
 # mPW1PW91/6-311g(d) geom=checkpoint nmr=giao scrf=(solvent=chloroform
 )
 ----------------------------------------------------------------------

 -------------
 P_ng_3ginp002
 -------------
 Structure from the checkpoint file:  "/home/ke291/rds/hpc-work/06Feb0927IP1/P_ng_3ginp002.chk"
 Charge =  0 Multiplicity = 1

                         Standard orientation:
 ---------------------------------------------------------------------
 Center     Atomic      Atomic             Coordinates (Angstroms)
 Number     Number       Type             X           Y           Z
 ---------------------------------------------------------------------
      1          6           0        2.429946   -0.110986    0.063173
      2          6           0        1.116690    0.244628    0.774643
      3          6           0       -0.065283    0.043257   -0.213875
      4          6           0       -0.076339   -1.433985   -0.638452
      5          6           0        1.274510   -2.021260   -1.017313
      6          1           0        2.580006    0.583482   -0.770555
      7          1           0        1.161965    1.317432    0.993289
      8          1           0       -0.439429   -2.044513    0.195381
      9          1           0       -0.751189   -1.615061   -1.479418
     10          8           0        2.396527   -1.449862   -0.532148
     11          8           0        1.372424   -3.033965   -1.678812
     12          6           0        3.694109   -0.087052    0.922608
     13          6           0        4.024111    1.302445    1.477605
     14          6           0        0.922053   -0.511842    2.098503
     15          8           0       -1.258171    0.405111    0.478175
     16         14           0       -2.891128    0.012215    0.354839
     17          6           0       -3.531279    0.107767   -1.418965
     18          6           0       -3.230467   -1.708416    1.053909
     19          6           0       -3.740015    1.309355    1.419590
     20          1           0       -4.311772   -1.874113    1.127965
     21          1           0       -2.820244   -2.507099    0.427681
     22          1           0       -2.810033   -1.817920    2.059305
     23          1           0       -4.822259    1.140680    1.448722
     24          1           0       -3.369511    1.280158    2.449565
     25          1           0       -3.568102    2.318059    1.029907
     26          1           0       -4.610197   -0.087588   -1.426781
     27          1           0       -3.372712    1.099466   -1.855234
     28          1           0       -3.063981   -0.631476   -2.078117
     29          1           0       -0.080086   -0.329605    2.489168
     30          1           0        1.055062   -1.592324    1.983228
     31          1           0        1.641337   -0.173778    2.848879
     32          1           0        4.517885   -0.435401    0.289964
     33          1           0        3.599641   -0.813967    1.735874
     34          1           0        4.987067    1.286230    1.995948
     35          1           0        4.089874    2.046060    0.675812
     36          1           0        3.271301    1.649808    2.192061
     37          6           0        0.054260    0.947356   -1.474050
     38          6           0        0.184583    2.415296   -1.175764
     39          6           0        1.112839    3.221223   -1.694657
     40          1           0       -0.857553    0.774316   -2.059490
     41          1           0        0.885814    0.618915   -2.107938
     42          1           0       -0.555316    2.824814   -0.489703
     43          1           0        1.146064    4.280088   -1.455234
     44          1           0        1.867609    2.855327   -2.387469
 ---------------------------------------------------------------------

 SCF Done:  E(RmPW1PW91) =  -1064.38445528     A.U. after   12 cycles

      1  C    Isotropic =   104.5053   Anisotropy =    63.0969

      2  C    Isotropic =   149.0752   Anisotropy =    15.6300

      3  C    Isotropic =   107.9134   Anisotropy =    55.4188

      4  C    Isotropic =   144.3713   Anisotropy =    37.6160

      5  C    Isotropic =    13.2793   Anisotropy =    88.1294

      6  H    Isotropic =    27.8831   Anisotropy =     2.7485

      7  H    Isotropic =    30.1050   Anisotropy =     4.5062

      8  H    Isotropic =    29.3967   Anisotropy =     4.4520

      9  H    Isotropic =    29.7269   Anisotropy =     3.9742

     10  O    Isotropic =   104.0839   Anisotropy =   179.4924

     11  O    Isotropic =  -105.7423   Anisotropy =   569.3208

     12  C    Isotropic =   159.6249   Anisotropy =    24.6335

     13  C    Isotropic =   178.2408   Anisotropy =    16.8616

     14  C    Isotropic =   181.1938   Anisotropy =    12.2492

     15  O    Isotropic =   245.4450   Anisotropy =    20.6324

     16  Si   Isotropic =   332.8314   Anisotropy =    42.4672

     17  C    Isotropic =   185.6752   Anisotropy =     9.2778

     18  C    Isotropic =   185.2285   Anisotropy =    11.8336

     19  C    Isotropic =   186.7782   Anisotropy =    12.6065

     20  H    Isotropic =    32.2155   Anisotropy =    10.5024

     21  H    Isotropic =    31.9049   Anisotropy =     6.7201

     22  H    Isotropic =    31.8744   Anisotropy =     7.4910

     23  H    Isotropic =    32.3410   Anisotropy =    10.3234

     24  H    Isotropic =    31.8925   Anisotropy =     8.2591

     25  H    Isotropic =    31.9261   Anisotropy =     8.4345

     26  H    Isotropic =    32.1495   Anisotropy =    10.5110

     27  H    Isotropic =    31.8625   Anisotropy =     7.5578

     28  H    Isotropic =    31.8657   Anisotropy =     6.8158

     29  H    Isotropic =    30.7787   Anisotropy =     8.3458

     30  H    Isotropic =    31.5055   Anisotropy =     7.5076

     31  H    Isotropic =    31.2133   Anisotropy =     9.9262

     32  H    Isotropic =    30.2019   Anisotropy =     9.0520

     33  H    Isotropic =    30.3434   Anisotropy =     5.3306

     34  H    Isotropic =    31.0192   Anisotropy =    12.0254

     35  H    Isotropic =    31.3678   Anisotropy =     8.4451

     36  H    Isotropic =    31.3102   Anisotropy =     6.0829

     37  C    Isotropic =   140.3930   Anisotropy =    33.9164

     38  C    Isotropic =    46.4065   Anisotropy =   179.8766

     39  C    Isotropic =    65.7579   Anisotropy =   141.6291

     40  H    Isotropic =    29.5321   Anisotropy =     5.8473

     41  H    Isotropic =    29.7398   Anisotropy =     5.3579

     42  H    Isotropic =    25.7394   Anisotropy =     7.2816

     43  H    Isotropic =    26.7072   Anisotropy =     6.8240

     44  H    Isotropic =    26.7664   Anisotropy =     7.2135

 The electronic state is 1-A.
 Alpha  occ. eigenvalues --  -66.27491 -19.25921 -19.20731 -19.19664 -10.37088
 Alpha  occ. eigenvalues --  -10.31753 -10.30359 -10.25322 -10.25009 -10.24350
 Alpha  occ. eigenvalues --  -10.24306 -10.23707 -10.23011 -10.22638 -10.22350
 Alpha  occ. eigenvalues --  -10.21099 -10.20882 -10.20739  -5.33226  -3.67114
 Alpha  occ. eigenvalues --   -3.66819  -3.66806  -1.13181  -1.04847  -1.04070
 Alpha  occ. eigenvalues --   -0.85989  -0.83052  -0.80901  -0.77342  -0.74103
 Alpha  occ. eigenvalues --   -0.73351  -0.71753  -0.70393  -0.70227  -0.67032
 Alpha  occ. eigenvalues --   -0.63208  -0.61997  -0.58671  -0.54582  -0.53196
 Alpha  occ. eigenvalues --   -0.52932  -0.51570  -0.51103  -0.47971  -0.46938
 Alpha  occ. eigenvalues --   -0.46585  -0.45059  -0.44971  -0.44415  -0.43749
 Alpha  occ. eigenvalues --   -0.42829  -0.42658  -0.42412  -0.41401  -0.40986
 Alpha  occ. eigenvalues --   -0.40665  -0.40347  -0.39767  -0.39270  -0.39091
 Alpha  occ. eigenvalues --   -0.38351  -0.37890  -0.37348  -0.37148  -0.36443
 Alpha  occ. eigenvalues --   -0.35451  -0.34298  -0.33341  -0.32260  -0.31098
 Alpha  occ. eigenvalues --   -0.30400  -0.29474  -0.28324  -0.27225
 Alpha virt. eigenvalues --    0.00350   0.00854   0.03684   0.05346   0.06287
 Alpha virt. eigenvalues --    0.06546   0.07135   0.07793   0.08270   0.08908
 Alpha virt. eigenvalues --    0.09574   0.09692   0.10625   0.10758   0.11597

 Mulliken charges:
               1
     1  C   -0.032434
     2  C   -0.311643
     3  C    0.204591
     4  C   -0.671142
     5  C    0.476919
     6  H    0.257395
     7  H    0.264100
     8  H    0.306538
     9  H    0.269559
    10  O   -0.325068
    11  O   -0.381210
    12  C   -0.462690
    13  C   -0.674779
    14  C   -0.687955
    15  O   -0.641637
    16  Si   1.447557
    17  C   -1.082081
    18  C   -1.071837
    19  C   -1.043344
    20  H    0.239240
    21  H    0.243106
    22  H    0.244924
    23  H    0.233335
    24  H    0.241026
    25  H    0.241911
    26  H    0.243692
    27  H    0.245994
    28  H    0.247362
    29  H    0.264505
    30  H    0.230883
    31  H    0.243461
    32  H    0.241488
    33  H    0.240949
    34  H    0.237314
    35  H    0.230589
    36  H    0.233054
    37  C   -0.499606
    38  C   -0.183384
    39  C   -0.453305
    40  H    0.270435
    41  H    0.246508
    42  H    0.225443
    43  H    0.228114
    44  H    0.222120
 Sum of Mulliken charges =   0.00000

 Dipole moment (field-independent basis, Debye):
    X=             -1.9241    Y=              3.8714    Z=              2.0740  Tot=              4.7949
 Quadrupole moment (field-independent basis, Debye-Ang):
   XX=           -112.6003   YY=           -132.8664   ZZ=           -121.6921
   XY=             11.7436   XZ=              5.4565   YZ=             -9.0130

 Normal termination of Gaussian 09 at Wed Feb  6 11:28:28 2019.
