 Gaussian 09, Revision D.01,
 Gaussian 09:  ES64L-G09RevD.01 24-Apr-2013

 ----------------------------------------------------------------------
 # mPW1PW91/6-311g(d) geom=checkpoint nmr=giao scrf=(solvent=chloroform
 )
 ----------------------------------------------------------------------

 --------------------
 P_ng_correct1ginp008
 --------------------
 Structure from the checkpoint file:  "/home/ke291/rds/hpc-work/06Feb0927IP1/P_ng_correct1ginp008.chk"
 Charge =  0 Multiplicity = 1

                         Standard orientation:
 ---------------------------------------------------------------------
 Center     Atomic      Atomic             Coordinates (Angstroms)
 Number     Number       Type             X           Y           Z
 ---------------------------------------------------------------------
      1          6           0       -2.219480   -0.171568   -0.307807
      2          6           0       -0.815598   -0.230796   -0.936042
      3          6           0        0.134572    0.776862   -0.212786
      4          6           0       -0.295957    0.921660    1.279640
      5          6           0       -1.129364   -0.199689    1.854226
      6          1           0       -2.581330    0.866035   -0.265465
      7          1           0       -0.445035   -1.232936   -0.684515
      8          1           0        0.579197    1.065375    1.912497
      9          1           0       -0.906955    1.827472    1.384270
     10          8           0       -2.121607   -0.666866    1.062235
     11          8           0       -0.997782   -0.653882    2.971548
     12          6           0       -3.279675   -1.036358   -0.985342
     13          6           0       -4.638532   -0.997676   -0.279011
     14          6           0       -0.809721   -0.104818   -2.465080
     15          8           0        1.491347    0.348737   -0.296820
     16         14           0        2.359151   -1.079444   -0.084562
     17          6           0        2.413207   -2.052477   -1.700761
     18          6           0        4.092535   -0.494165    0.354268
     19          6           0        1.667726   -2.168871    1.291043
     20          1           0        4.493952    0.165859   -0.421903
     21          1           0        4.098664    0.057848    1.299938
     22          1           0        4.777010   -1.343658    0.457337
     23          1           0        1.508352   -1.614218    2.220225
     24          1           0        0.717564   -2.641041    1.020929
     25          1           0        2.381880   -2.974290    1.500322
     26          1           0        2.812501   -1.440433   -2.516689
     27          1           0        3.064371   -2.928106   -1.594292
     28          1           0        1.425018   -2.413033   -2.004332
     29          1           0       -1.283084   -0.974055   -2.927787
     30          1           0       -1.339559    0.787920   -2.811458
     31          1           0        0.217112   -0.053662   -2.836074
     32          1           0       -2.909708   -2.067957   -1.038419
     33          1           0       -3.394668   -0.685722   -2.015945
     34          1           0       -5.364432   -1.620777   -0.809678
     35          1           0       -4.560420   -1.363411    0.747510
     36          1           0       -5.036440    0.022788   -0.244397
     37          6           0        0.107514    2.179647   -0.877632
     38          6           0        0.926704    3.214284   -0.156290
     39          6           0        0.459295    4.384177    0.282494
     40          1           0       -0.930124    2.524180   -0.961689
     41          1           0        0.498451    2.064739   -1.894530
     42          1           0        1.975433    2.964084   -0.006459
     43          1           0        1.100695    5.102669    0.784566
     44          1           0       -0.581573    4.671377    0.148692
 ---------------------------------------------------------------------

 SCF Done:  E(RmPW1PW91) =  -1064.38344377     A.U. after   12 cycles

      1  C    Isotropic =   104.8684   Anisotropy =    45.8222

      2  C    Isotropic =   136.3703   Anisotropy =    23.2851

      3  C    Isotropic =   106.0509   Anisotropy =    55.7881

      4  C    Isotropic =   140.3748   Anisotropy =    24.7559

      5  C    Isotropic =     9.6019   Anisotropy =    98.4446

      6  H    Isotropic =    28.3224   Anisotropy =     3.2317

      7  H    Isotropic =    30.3624   Anisotropy =     5.7938

      8  H    Isotropic =    29.7890   Anisotropy =     4.4486

      9  H    Isotropic =    29.4817   Anisotropy =     4.9818

     10  O    Isotropic =    82.4493   Anisotropy =   180.1602

     11  O    Isotropic =  -103.7487   Anisotropy =   570.5275

     12  C    Isotropic =   159.0041   Anisotropy =    17.4487

     13  C    Isotropic =   176.1520   Anisotropy =    21.3701

     14  C    Isotropic =   176.8628   Anisotropy =     7.7791

     15  O    Isotropic =   240.5771   Anisotropy =    12.5408

     16  Si   Isotropic =   333.6808   Anisotropy =    39.4659

     17  C    Isotropic =   185.6383   Anisotropy =    10.5303

     18  C    Isotropic =   186.3416   Anisotropy =    13.4184

     19  C    Isotropic =   186.0710   Anisotropy =     8.1825

     20  H    Isotropic =    31.9034   Anisotropy =     8.5041

     21  H    Isotropic =    31.9635   Anisotropy =     8.3468

     22  H    Isotropic =    32.3590   Anisotropy =    10.2557

     23  H    Isotropic =    31.8486   Anisotropy =     7.5269

     24  H    Isotropic =    32.0773   Anisotropy =     6.4974

     25  H    Isotropic =    32.2321   Anisotropy =    10.6722

     26  H    Isotropic =    31.9493   Anisotropy =     8.0854

     27  H    Isotropic =    32.2669   Anisotropy =    10.3716

     28  H    Isotropic =    32.0077   Anisotropy =     7.0190

     29  H    Isotropic =    31.1304   Anisotropy =     8.6177

     30  H    Isotropic =    31.4149   Anisotropy =     8.4597

     31  H    Isotropic =    30.8759   Anisotropy =     7.2144

     32  H    Isotropic =    30.5631   Anisotropy =     5.3071

     33  H    Isotropic =    30.4999   Anisotropy =     5.7333

     34  H    Isotropic =    30.9989   Anisotropy =    11.4788

     35  H    Isotropic =    30.6254   Anisotropy =     7.9047

     36  H    Isotropic =    31.3023   Anisotropy =     9.3973

     37  C    Isotropic =   140.3347   Anisotropy =    14.2744

     38  C    Isotropic =    45.0764   Anisotropy =   180.7173

     39  C    Isotropic =    65.8178   Anisotropy =   138.6770

     40  H    Isotropic =    30.1967   Anisotropy =     6.3731

     41  H    Isotropic =    29.5601   Anisotropy =     3.4352

     42  H    Isotropic =    25.6576   Anisotropy =     7.5737

     43  H    Isotropic =    26.7179   Anisotropy =     6.8367

     44  H    Isotropic =    26.8012   Anisotropy =     7.3058

 The electronic state is 1-A.
 Alpha  occ. eigenvalues --  -66.27269 -19.25961 -19.20489 -19.19660 -10.36685
 Alpha  occ. eigenvalues --  -10.32064 -10.30706 -10.25731 -10.24941 -10.24078
 Alpha  occ. eigenvalues --  -10.24043 -10.24041 -10.23147 -10.22794 -10.22233
 Alpha  occ. eigenvalues --  -10.20713 -10.20603 -10.20525  -5.33003  -3.66895
 Alpha  occ. eigenvalues --   -3.66593  -3.66580  -1.13330  -1.04932  -1.03854
 Alpha  occ. eigenvalues --   -0.85911  -0.83228  -0.80424  -0.77820  -0.73960
 Alpha  occ. eigenvalues --   -0.72494  -0.72080  -0.70087  -0.70021  -0.66863
 Alpha  occ. eigenvalues --   -0.63132  -0.62084  -0.58694  -0.56941  -0.54160
 Alpha  occ. eigenvalues --   -0.51707  -0.50740  -0.49083  -0.48632  -0.46950
 Alpha  occ. eigenvalues --   -0.46043  -0.44945  -0.44699  -0.43885  -0.43677
 Alpha  occ. eigenvalues --   -0.42902  -0.42358  -0.42144  -0.41834  -0.41200
 Alpha  occ. eigenvalues --   -0.40653  -0.40432  -0.39693  -0.39480  -0.39201
 Alpha  occ. eigenvalues --   -0.38774  -0.37961  -0.36856  -0.36483  -0.36145
 Alpha  occ. eigenvalues --   -0.35744  -0.35409  -0.33412  -0.32480  -0.31025
 Alpha  occ. eigenvalues --   -0.30193  -0.28653  -0.28256  -0.27188
 Alpha virt. eigenvalues --    0.00604   0.01277   0.03978   0.05060   0.05868
 Alpha virt. eigenvalues --    0.06698   0.07695   0.07958   0.08389   0.09170
 Alpha virt. eigenvalues --    0.09242   0.10068   0.10251   0.10874   0.11578

 Mulliken charges:
               1
     1  C   -0.007492
     2  C   -0.369266
     3  C    0.267727
     4  C   -0.664997
     5  C    0.504081
     6  H    0.237943
     7  H    0.252881
     8  H    0.281482
     9  H    0.290696
    10  O   -0.320404
    11  O   -0.384548
    12  C   -0.459312
    13  C   -0.662369
    14  C   -0.712519
    15  O   -0.632794
    16  Si   1.413405
    17  C   -1.063007
    18  C   -1.040114
    19  C   -1.083458
    20  H    0.240081
    21  H    0.239837
    22  H    0.231838
    23  H    0.254991
    24  H    0.250878
    25  H    0.241975
    26  H    0.241707
    27  H    0.237004
    28  H    0.246858
    29  H    0.248690
    30  H    0.243397
    31  H    0.262174
    32  H    0.234718
    33  H    0.245370
    34  H    0.230680
    35  H    0.241747
    36  H    0.222126
    37  C   -0.500155
    38  C   -0.179056
    39  C   -0.452102
    40  H    0.238918
    41  H    0.260731
    42  H    0.224097
    43  H    0.227403
    44  H    0.218157
 Sum of Mulliken charges =   0.00000

 Dipole moment (field-independent basis, Debye):
    X=             -0.2800    Y=              1.1678    Z=             -4.8897  Tot=              5.0350
 Quadrupole moment (field-independent basis, Debye-Ang):
   XX=           -114.5137   YY=           -116.5868   ZZ=           -131.9622
   XY=             -6.2112   XZ=              9.3023   YZ=              7.0756

 Normal termination of Gaussian 09 at Wed Feb  6 11:50:03 2019.
