 Gaussian 09, Revision D.01,
 Gaussian 09:  ES64L-G09RevD.01 24-Apr-2013

 ----------------------------------------------------------------------
 # mPW1PW91/6-311g(d) geom=checkpoint nmr=giao scrf=(solvent=chloroform
 )
 ----------------------------------------------------------------------

 -------------
 P_ng_2ginp010
 -------------
 Structure from the checkpoint file:  "/home/ke291/rds/hpc-work/06Feb0927IP1/P_ng_2ginp010.chk"
 Charge =  0 Multiplicity = 1

                         Standard orientation:
 ---------------------------------------------------------------------
 Center     Atomic      Atomic             Coordinates (Angstroms)
 Number     Number       Type             X           Y           Z
 ---------------------------------------------------------------------
      1          6           0        2.301764   -0.601861   -0.109884
      2          6           0        0.855635   -1.117193   -0.206286
      3          6           0       -0.208977   -0.003176    0.000239
      4          6           0        0.113786    1.127070   -0.990747
      5          6           0        1.557794    1.581973   -1.046880
      6          1           0        2.555064   -0.436541    0.942605
      7          1           0        0.689827   -1.457927   -1.237246
      8          1           0       -0.127216    0.757755   -1.995224
      9          1           0       -0.501032    2.013904   -0.822938
     10          8           0        2.523885    0.692990   -0.754111
     11          8           0        1.876504    2.695075   -1.414134
     12          6           0        3.326893   -1.549321   -0.738542
     13          6           0        4.778025   -1.091888   -0.561679
     14          6           0        0.644976   -2.318447    0.728518
     15          8           0       -1.445888   -0.603868   -0.392041
     16         14           0       -3.078042   -0.207552   -0.271141
     17          6           0       -3.751931   -0.623787    1.442392
     18          6           0       -3.414720    1.607166   -0.668574
     19          6           0       -3.899810   -1.309249   -1.555309
     20          1           0       -4.495642    1.789936   -0.647461
     21          1           0       -2.956527    2.294150    0.050480
     22          1           0       -3.054903    1.874260   -1.667569
     23          1           0       -4.987238   -1.174786   -1.544716
     24          1           0       -3.542555   -1.077875   -2.564123
     25          1           0       -3.692186   -2.366508   -1.360117
     26          1           0       -4.841695   -0.504378    1.456931
     27          1           0       -3.529735   -1.662341    1.710568
     28          1           0       -3.338931    0.020428    2.224738
     29          1           0       -0.412096   -2.591302    0.746584
     30          1           0        1.207046   -3.191235    0.387760
     31          1           0        0.962495   -2.097403    1.752857
     32          1           0        3.089423   -1.654858   -1.804692
     33          1           0        3.200082   -2.538760   -0.287223
     34          1           0        4.942078   -0.112999   -1.018603
     35          1           0        5.041194   -1.016646    0.499355
     36          1           0        5.465827   -1.804973   -1.026133
     37          6           0       -0.343992    0.518397    1.458996
     38          6           0        0.812378    1.281735    2.050176
     39          6           0        1.415841    0.972100    3.199606
     40          1           0       -0.602530   -0.324261    2.106944
     41          1           0       -1.213085    1.190422    1.458492
     42          1           0        1.130216    2.179357    1.520303
     43          1           0        2.217836    1.583009    3.602804
     44          1           0        1.124890    0.100609    3.781719
 ---------------------------------------------------------------------

 SCF Done:  E(RmPW1PW91) =  -1064.38273664     A.U. after   13 cycles

      1  C    Isotropic =   100.7053   Anisotropy =    51.0572

      2  C    Isotropic =   139.0444   Anisotropy =    25.7307

      3  C    Isotropic =   107.6375   Anisotropy =    54.4129

      4  C    Isotropic =   140.0784   Anisotropy =    33.3444

      5  C    Isotropic =    12.7627   Anisotropy =    90.9084

      6  H    Isotropic =    27.8494   Anisotropy =     3.3513

      7  H    Isotropic =    30.2807   Anisotropy =     3.7886

      8  H    Isotropic =    29.5848   Anisotropy =     4.1871

      9  H    Isotropic =    29.3041   Anisotropy =     3.9569

     10  O    Isotropic =    98.5129   Anisotropy =   202.2761

     11  O    Isotropic =   -98.7761   Anisotropy =   551.3270

     12  C    Isotropic =   156.0620   Anisotropy =    25.7261

     13  C    Isotropic =   175.5773   Anisotropy =    21.8513

     14  C    Isotropic =   176.3592   Anisotropy =    17.9784

     15  O    Isotropic =   227.0511   Anisotropy =    59.3948

     16  Si   Isotropic =   333.2832   Anisotropy =    41.8482

     17  C    Isotropic =   185.2507   Anisotropy =    11.9960

     18  C    Isotropic =   185.8910   Anisotropy =     9.0022

     19  C    Isotropic =   186.4337   Anisotropy =    13.1615

     20  H    Isotropic =    32.1649   Anisotropy =    10.4933

     21  H    Isotropic =    31.8566   Anisotropy =     6.5008

     22  H    Isotropic =    31.8669   Anisotropy =     7.6258

     23  H    Isotropic =    32.3752   Anisotropy =    10.2425

     24  H    Isotropic =    32.0367   Anisotropy =     8.3418

     25  H    Isotropic =    31.9424   Anisotropy =     8.3095

     26  H    Isotropic =    32.2733   Anisotropy =    10.3552

     27  H    Isotropic =    31.8818   Anisotropy =     7.9008

     28  H    Isotropic =    31.9414   Anisotropy =     6.4624

     29  H    Isotropic =    30.4932   Anisotropy =     7.5042

     30  H    Isotropic =    31.1803   Anisotropy =     9.8666

     31  H    Isotropic =    31.4142   Anisotropy =     7.7167

     32  H    Isotropic =    30.6847   Anisotropy =     5.5758

     33  H    Isotropic =    30.3469   Anisotropy =     5.5852

     34  H    Isotropic =    30.5629   Anisotropy =     7.7521

     35  H    Isotropic =    31.2897   Anisotropy =     8.8249

     36  H    Isotropic =    31.0639   Anisotropy =    11.5233

     37  C    Isotropic =   140.5221   Anisotropy =    29.5265

     38  C    Isotropic =    46.2745   Anisotropy =   175.2448

     39  C    Isotropic =    63.7662   Anisotropy =   144.8305

     40  H    Isotropic =    29.2664   Anisotropy =     2.7583

     41  H    Isotropic =    29.7048   Anisotropy =     6.6269

     42  H    Isotropic =    25.9829   Anisotropy =     6.5085

     43  H    Isotropic =    26.7698   Anisotropy =     6.7236

     44  H    Isotropic =    26.6285   Anisotropy =     7.0464

 The electronic state is 1-A.
 Alpha  occ. eigenvalues --  -66.27419 -19.25692 -19.20664 -19.19423 -10.36848
 Alpha  occ. eigenvalues --  -10.31865 -10.30147 -10.25174 -10.24964 -10.24795
 Alpha  occ. eigenvalues --  -10.24643 -10.23647 -10.23323 -10.22638 -10.21927
 Alpha  occ. eigenvalues --  -10.21046 -10.20810 -10.20668  -5.33155  -3.67042
 Alpha  occ. eigenvalues --   -3.66750  -3.66733  -1.13050  -1.04611  -1.03989
 Alpha  occ. eigenvalues --   -0.85808  -0.83232  -0.80724  -0.77663  -0.73865
 Alpha  occ. eigenvalues --   -0.73014  -0.71794  -0.70370  -0.70118  -0.66775
 Alpha  occ. eigenvalues --   -0.63701  -0.62013  -0.58373  -0.56322  -0.53427
 Alpha  occ. eigenvalues --   -0.52669  -0.50590  -0.49092  -0.48045  -0.47045
 Alpha  occ. eigenvalues --   -0.46625  -0.45299  -0.44822  -0.44256  -0.43928
 Alpha  occ. eigenvalues --   -0.42790  -0.42527  -0.41801  -0.41629  -0.41066
 Alpha  occ. eigenvalues --   -0.40851  -0.40549  -0.40211  -0.39707  -0.38663
 Alpha  occ. eigenvalues --   -0.38227  -0.37732  -0.37246  -0.36231  -0.35996
 Alpha  occ. eigenvalues --   -0.35449  -0.34368  -0.33499  -0.32308  -0.31044
 Alpha  occ. eigenvalues --   -0.30198  -0.29815  -0.28082  -0.27205
 Alpha virt. eigenvalues --   -0.00347   0.01399   0.03806   0.05891   0.06149
 Alpha virt. eigenvalues --    0.06867   0.07373   0.07864   0.08507   0.09170
 Alpha virt. eigenvalues --    0.09227   0.09905   0.10278   0.10743   0.11018

 Mulliken charges:
               1
     1  C   -0.022960
     2  C   -0.275735
     3  C    0.183741
     4  C   -0.608239
     5  C    0.465102
     6  H    0.260152
     7  H    0.245008
     8  H    0.289468
     9  H    0.274905
    10  O   -0.331110
    11  O   -0.387340
    12  C   -0.439262
    13  C   -0.664266
    14  C   -0.696356
    15  O   -0.626071
    16  Si   1.411779
    17  C   -1.059678
    18  C   -1.074269
    19  C   -1.038470
    20  H    0.243051
    21  H    0.249186
    22  H    0.247436
    23  H    0.232597
    24  H    0.240862
    25  H    0.240964
    26  H    0.237702
    27  H    0.242656
    28  H    0.245213
    29  H    0.261278
    30  H    0.242025
    31  H    0.231729
    32  H    0.228627
    33  H    0.239665
    34  H    0.240096
    35  H    0.222374
    36  H    0.228266
    37  C   -0.523307
    38  C   -0.215677
    39  C   -0.449825
    40  H    0.266764
    41  H    0.255410
    42  H    0.229445
    43  H    0.233002
    44  H    0.224061
 Sum of Mulliken charges =   0.00000

 Dipole moment (field-independent basis, Debye):
    X=             -2.8413    Y=             -3.8098    Z=              2.3108  Tot=              5.2847
 Quadrupole moment (field-independent basis, Debye-Ang):
   XX=           -118.9445   YY=           -128.5796   ZZ=           -118.4659
   XY=            -13.1509   XZ=              6.0225   YZ=              5.2541

 Normal termination of Gaussian 09 at Wed Feb  6 11:31:15 2019.
