 Gaussian 09, Revision D.01,
 Gaussian 09:  ES64L-G09RevD.01 24-Apr-2013

 ----------------------------------------------------------------------
 # mPW1PW91/6-311g(d) geom=checkpoint nmr=giao scrf=(solvent=chloroform
 )
 ----------------------------------------------------------------------

 -------------
 P_ng_2ginp011
 -------------
 Structure from the checkpoint file:  "/home/ke291/rds/hpc-work/06Feb0927IP1/P_ng_2ginp011.chk"
 Charge =  0 Multiplicity = 1

                         Standard orientation:
 ---------------------------------------------------------------------
 Center     Atomic      Atomic             Coordinates (Angstroms)
 Number     Number       Type             X           Y           Z
 ---------------------------------------------------------------------
      1          6           0        2.466609    0.389133    0.070259
      2          6           0        1.134387    0.325612    0.825774
      3          6           0       -0.027469   -0.009618   -0.152890
      4          6           0        0.302328   -1.404578   -0.715548
      5          6           0        1.706941   -1.567333   -1.268155
      6          1           0        2.455579    1.265243   -0.589562
      7          1           0        1.168054   -0.531010    1.510789
      8          1           0        0.196623   -2.136814    0.093892
      9          1           0       -0.384955   -1.704914   -1.508616
     10          8           0        2.685496   -0.759199   -0.812758
     11          8           0        1.991106   -2.431663   -2.071566
     12          6           0        3.723701    0.472692    0.944050
     13          6           0        3.901699   -0.671680    1.946289
     14          6           0        0.924226    1.582510    1.682778
     15          8           0       -1.208606   -0.073557    0.640298
     16         14           0       -2.831104   -0.464920    0.413812
     17          6           0       -3.431593   -0.891094    2.144639
     18          6           0       -3.798854    1.012245   -0.250974
     19          6           0       -3.091850   -1.935902   -0.740355
     20          1           0       -3.692554    1.886968    0.399372
     21          1           0       -3.482062    1.301668   -1.258007
     22          1           0       -4.865911    0.764980   -0.300120
     23          1           0       -2.547793   -2.825319   -0.407214
     24          1           0       -4.158627   -2.189265   -0.758367
     25          1           0       -2.793856   -1.721303   -1.772017
     26          1           0       -4.504992   -1.111148    2.142073
     27          1           0       -2.909670   -1.768975    2.539452
     28          1           0       -3.262430   -0.060642    2.838005
     29          1           0       -0.091862    1.588760    2.081374
     30          1           0        1.615978    1.590805    2.529985
     31          1           0        1.074496    2.501479    1.111605
     32          1           0        3.713506    1.436946    1.463313
     33          1           0        4.582046    0.500096    0.263615
     34          1           0        4.866842   -0.583773    2.453844
     35          1           0        3.124907   -0.669591    2.717381
     36          1           0        3.877028   -1.642028    1.441520
     37          6           0       -0.209882    0.973049   -1.341945
     38          6           0       -0.509660    2.410814   -1.014411
     39          6           0        0.066276    3.455707   -1.611992
     40          1           0       -1.041118    0.568272   -1.937785
     41          1           0        0.667931    0.925107   -1.997108
     42          1           0       -1.278600    2.583572   -0.264751
     43          1           0       -0.213313    4.476314   -1.367804
     44          1           0        0.835082    3.329459   -2.371166
 ---------------------------------------------------------------------

 SCF Done:  E(RmPW1PW91) =  -1064.38197650     A.U. after   12 cycles

      1  C    Isotropic =   102.9928   Anisotropy =    61.0187

      2  C    Isotropic =   142.7752   Anisotropy =    20.5273

      3  C    Isotropic =   108.2417   Anisotropy =    55.1684

      4  C    Isotropic =   136.7314   Anisotropy =    34.8264

      5  C    Isotropic =    12.6877   Anisotropy =    89.3005

      6  H    Isotropic =    27.7512   Anisotropy =     2.8498

      7  H    Isotropic =    30.0096   Anisotropy =     5.1643

      8  H    Isotropic =    29.6990   Anisotropy =     3.9868

      9  H    Isotropic =    29.5251   Anisotropy =     4.1485

     10  O    Isotropic =    95.7970   Anisotropy =   160.9755

     11  O    Isotropic =  -104.3598   Anisotropy =   559.9851

     12  C    Isotropic =   160.2909   Anisotropy =    21.0893

     13  C    Isotropic =   181.4808   Anisotropy =    11.7862

     14  C    Isotropic =   176.3873   Anisotropy =    13.4201

     15  O    Isotropic =   244.5942   Anisotropy =    32.1408

     16  Si   Isotropic =   332.7681   Anisotropy =    43.8700

     17  C    Isotropic =   186.2605   Anisotropy =    12.9509

     18  C    Isotropic =   185.0510   Anisotropy =    10.3553

     19  C    Isotropic =   185.1235   Anisotropy =     8.5352

     20  H    Isotropic =    31.8110   Anisotropy =     7.8459

     21  H    Isotropic =    31.9043   Anisotropy =     6.5248

     22  H    Isotropic =    32.2056   Anisotropy =    10.2645

     23  H    Isotropic =    31.8522   Anisotropy =     7.4489

     24  H    Isotropic =    32.1590   Anisotropy =    10.3926

     25  H    Isotropic =    31.8500   Anisotropy =     6.6293

     26  H    Isotropic =    32.3317   Anisotropy =    10.2745

     27  H    Isotropic =    31.9640   Anisotropy =     8.2170

     28  H    Isotropic =    31.8460   Anisotropy =     8.1748

     29  H    Isotropic =    30.4858   Anisotropy =     6.7897

     30  H    Isotropic =    31.4229   Anisotropy =     9.7579

     31  H    Isotropic =    31.2291   Anisotropy =     7.9832

     32  H    Isotropic =    30.3906   Anisotropy =     6.8485

     33  H    Isotropic =    30.1475   Anisotropy =     9.4031

     34  H    Isotropic =    31.2303   Anisotropy =    12.1030

     35  H    Isotropic =    31.2456   Anisotropy =     6.7130

     36  H    Isotropic =    31.1483   Anisotropy =     7.5894

     37  C    Isotropic =   141.8503   Anisotropy =    31.9901

     38  C    Isotropic =    43.7274   Anisotropy =   184.5900

     39  C    Isotropic =    67.8253   Anisotropy =   139.0687

     40  H    Isotropic =    29.6057   Anisotropy =     4.1525

     41  H    Isotropic =    29.5470   Anisotropy =     5.0263

     42  H    Isotropic =    25.5568   Anisotropy =     6.5660

     43  H    Isotropic =    26.8775   Anisotropy =     7.0035

     44  H    Isotropic =    26.8007   Anisotropy =     7.1081

 The electronic state is 1-A.
 Alpha  occ. eigenvalues --  -66.27514 -19.25875 -19.20804 -19.19517 -10.36936
 Alpha  occ. eigenvalues --  -10.31822 -10.30455 -10.25098 -10.25042 -10.24665
 Alpha  occ. eigenvalues --  -10.24380 -10.23761 -10.22909 -10.22237 -10.22233
 Alpha  occ. eigenvalues --  -10.21063 -10.20850 -10.20690  -5.33241  -3.67131
 Alpha  occ. eigenvalues --   -3.66835  -3.66818  -1.13128  -1.04739  -1.04094
 Alpha  occ. eigenvalues --   -0.85925  -0.83101  -0.80829  -0.77489  -0.73955
 Alpha  occ. eigenvalues --   -0.72969  -0.71960  -0.70373  -0.70183  -0.67007
 Alpha  occ. eigenvalues --   -0.62766  -0.62580  -0.58863  -0.55756  -0.53098
 Alpha  occ. eigenvalues --   -0.52490  -0.51025  -0.49201  -0.48358  -0.47078
 Alpha  occ. eigenvalues --   -0.46324  -0.45460  -0.44781  -0.44199  -0.43850
 Alpha  occ. eigenvalues --   -0.42822  -0.42420  -0.42342  -0.41539  -0.40986
 Alpha  occ. eigenvalues --   -0.40773  -0.40609  -0.40099  -0.39779  -0.39072
 Alpha  occ. eigenvalues --   -0.37948  -0.37728  -0.37376  -0.36459  -0.36294
 Alpha  occ. eigenvalues --   -0.35537  -0.34288  -0.33494  -0.32137  -0.31068
 Alpha  occ. eigenvalues --   -0.30196  -0.29689  -0.28111  -0.27044
 Alpha virt. eigenvalues --    0.00498   0.00802   0.03769   0.05733   0.05865
 Alpha virt. eigenvalues --    0.06239   0.07352   0.08109   0.08687   0.09120
 Alpha virt. eigenvalues --    0.09265   0.09927   0.10516   0.10644   0.11182

 Mulliken charges:
               1
     1  C   -0.031692
     2  C   -0.306714
     3  C    0.197435
     4  C   -0.629156
     5  C    0.484179
     6  H    0.253809
     7  H    0.253576
     8  H    0.288488
     9  H    0.274661
    10  O   -0.328437
    11  O   -0.384504
    12  C   -0.446467
    13  C   -0.678965
    14  C   -0.693395
    15  O   -0.631501
    16  Si   1.407687
    17  C   -1.039963
    18  C   -1.067036
    19  C   -1.073964
    20  H    0.243730
    21  H    0.249702
    22  H    0.240804
    23  H    0.249039
    24  H    0.243714
    25  H    0.246389
    26  H    0.232112
    27  H    0.239684
    28  H    0.241398
    29  H    0.259517
    30  H    0.239709
    31  H    0.242756
    32  H    0.241363
    33  H    0.241535
    34  H    0.234695
    35  H    0.229411
    36  H    0.237248
    37  C   -0.517166
    38  C   -0.176717
    39  C   -0.455792
    40  H    0.255198
    41  H    0.250762
    42  H    0.233898
    43  H    0.226844
    44  H    0.222126
 Sum of Mulliken charges =   0.00000

 Dipole moment (field-independent basis, Debye):
    X=             -2.6986    Y=              3.1855    Z=              2.6889  Tot=              4.9659
 Quadrupole moment (field-independent basis, Debye-Ang):
   XX=           -118.0080   YY=           -124.6886   ZZ=           -125.2717
   XY=             11.7936   XZ=              9.5864   YZ=             -8.5571

 Normal termination of Gaussian 09 at Wed Feb  6 11:39:09 2019.
