 Gaussian 09, Revision D.01,
 Gaussian 09:  ES64L-G09RevD.01 24-Apr-2013

 ----------------------------------------------------------------------
 # mPW1PW91/6-311g(d) geom=checkpoint nmr=giao scrf=(solvent=chloroform
 )
 ----------------------------------------------------------------------

 -------------
 P_ng_2ginp016
 -------------
 Structure from the checkpoint file:  "/home/ke291/rds/hpc-work/06Feb0927IP1/P_ng_2ginp016.chk"
 Charge =  0 Multiplicity = 1

                         Standard orientation:
 ---------------------------------------------------------------------
 Center     Atomic      Atomic             Coordinates (Angstroms)
 Number     Number       Type             X           Y           Z
 ---------------------------------------------------------------------
      1          6           0       -2.306276    0.026995   -0.403372
      2          6           0       -0.826266    0.062418   -0.808665
      3          6           0        0.057813    0.438912    0.415204
      4          6           0       -0.163274   -0.677266    1.451095
      5          6           0       -1.617779   -0.965902    1.776996
      6          1           0       -2.638301    1.053533   -0.205944
      7          1           0       -0.522220   -0.957973   -1.073881
      8          1           0        0.247707   -1.618809    1.067469
      9          1           0        0.347168   -0.465175    2.393206
     10          8           0       -2.553700   -0.704520    0.841935
     11          8           0       -1.962399   -1.474964    2.823031
     12          6           0       -3.264902   -0.588935   -1.429465
     13          6           0       -2.951736   -2.032103   -1.835466
     14          6           0       -0.622905    0.938957   -2.052889
     15          8           0        1.423817    0.521271    0.023150
     16         14           0        2.698461   -0.556730   -0.199588
     17          6           0        2.214662   -2.031870   -1.275838
     18          6           0        4.001424    0.480162   -1.073213
     19          6           0        3.370828   -1.162577    1.456172
     20          1           0        4.912182   -0.103545   -1.247469
     21          1           0        3.641864    0.838135   -2.043498
     22          1           0        4.274410    1.354519   -0.473279
     23          1           0        4.287831   -1.742532    1.299064
     24          1           0        3.619729   -0.319968    2.110119
     25          1           0        2.663532   -1.804604    1.990200
     26          1           0        3.102107   -2.642790   -1.479446
     27          1           0        1.475412   -2.685259   -0.800261
     28          1           0        1.808468   -1.707779   -2.239688
     29          1           0        0.443627    1.078495   -2.240597
     30          1           0       -1.059990    0.463135   -2.935368
     31          1           0       -1.075182    1.926538   -1.936302
     32          1           0       -3.283990    0.060616   -2.311166
     33          1           0       -4.268745   -0.541933   -0.992931
     34          1           0       -3.741746   -2.423289   -2.483245
     35          1           0       -2.008805   -2.111599   -2.385727
     36          1           0       -2.888556   -2.681231   -0.956986
     37          6           0       -0.275133    1.797809    1.091794
     38          6           0       -0.040050    3.039299    0.276099
     39          6           0       -0.887933    4.066356    0.195140
     40          1           0        0.377132    1.842523    1.975215
     41          1           0       -1.303554    1.789871    1.470360
     42          1           0        0.917659    3.089854   -0.237917
     43          1           0       -0.647681    4.958996   -0.375090
     44          1           0       -1.851097    4.056665    0.700928
 ---------------------------------------------------------------------

 SCF Done:  E(RmPW1PW91) =  -1064.38212174     A.U. after   12 cycles

      1  C    Isotropic =   102.2886   Anisotropy =    59.6758

      2  C    Isotropic =   143.6148   Anisotropy =    17.7631

      3  C    Isotropic =   108.0350   Anisotropy =    55.5898

      4  C    Isotropic =   137.4906   Anisotropy =    31.4747

      5  C    Isotropic =    12.7774   Anisotropy =    88.4666

      6  H    Isotropic =    27.7263   Anisotropy =     2.9619

      7  H    Isotropic =    30.0260   Anisotropy =     3.1670

      8  H    Isotropic =    29.6280   Anisotropy =     4.2136

      9  H    Isotropic =    29.5879   Anisotropy =     4.8865

     10  O    Isotropic =    96.2338   Anisotropy =   159.7827

     11  O    Isotropic =  -107.0289   Anisotropy =   561.0476

     12  C    Isotropic =   160.5953   Anisotropy =    20.7889

     13  C    Isotropic =   181.4659   Anisotropy =    11.5810

     14  C    Isotropic =   175.8112   Anisotropy =    13.5247

     15  O    Isotropic =   248.7422   Anisotropy =    18.1136

     16  Si   Isotropic =   333.2918   Anisotropy =    39.9327

     17  C    Isotropic =   185.8095   Anisotropy =     9.4689

     18  C    Isotropic =   186.8696   Anisotropy =    12.4425

     19  C    Isotropic =   184.7618   Anisotropy =    13.1097

     20  H    Isotropic =    32.3231   Anisotropy =    10.2436

     21  H    Isotropic =    31.8433   Anisotropy =     8.0650

     22  H    Isotropic =    31.8352   Anisotropy =     8.6422

     23  H    Isotropic =    32.2162   Anisotropy =    10.2804

     24  H    Isotropic =    31.8838   Anisotropy =     8.3001

     25  H    Isotropic =    31.8964   Anisotropy =     6.9358

     26  H    Isotropic =    32.1449   Anisotropy =    10.6613

     27  H    Isotropic =    31.9466   Anisotropy =     6.4993

     28  H    Isotropic =    31.9004   Anisotropy =     6.9457

     29  H    Isotropic =    30.5894   Anisotropy =     6.3851

     30  H    Isotropic =    31.4255   Anisotropy =     9.1771

     31  H    Isotropic =    31.1246   Anisotropy =     8.8625

     32  H    Isotropic =    30.3826   Anisotropy =     7.0523

     33  H    Isotropic =    30.1207   Anisotropy =     9.7233

     34  H    Isotropic =    31.2288   Anisotropy =    12.0895

     35  H    Isotropic =    31.2770   Anisotropy =     6.7437

     36  H    Isotropic =    31.1457   Anisotropy =     7.2229

     37  C    Isotropic =   140.5365   Anisotropy =    32.2144

     38  C    Isotropic =    42.9050   Anisotropy =   185.9055

     39  C    Isotropic =    68.9303   Anisotropy =   137.5713

     40  H    Isotropic =    29.6445   Anisotropy =     5.4399

     41  H    Isotropic =    29.6429   Anisotropy =     5.8122

     42  H    Isotropic =    25.4713   Anisotropy =     8.1752

     43  H    Isotropic =    26.9264   Anisotropy =     6.9772

     44  H    Isotropic =    26.8269   Anisotropy =     7.1956

 The electronic state is 1-A.
 Alpha  occ. eigenvalues --  -66.27540 -19.25973 -19.20780 -19.19662 -10.37094
 Alpha  occ. eigenvalues --  -10.31814 -10.30604 -10.25367 -10.25281 -10.24209
 Alpha  occ. eigenvalues --  -10.24026 -10.23856 -10.22596 -10.22428 -10.22348
 Alpha  occ. eigenvalues --  -10.21192 -10.20855 -10.20753  -5.33273  -3.67163
 Alpha  occ. eigenvalues --   -3.66866  -3.66851  -1.13235  -1.04871  -1.04124
 Alpha  occ. eigenvalues --   -0.85943  -0.83120  -0.80675  -0.77675  -0.74181
 Alpha  occ. eigenvalues --   -0.72789  -0.71916  -0.70485  -0.70220  -0.66927
 Alpha  occ. eigenvalues --   -0.62833  -0.62585  -0.58505  -0.56157  -0.53212
 Alpha  occ. eigenvalues --   -0.53059  -0.50666  -0.49270  -0.48197  -0.47254
 Alpha  occ. eigenvalues --   -0.46206  -0.45376  -0.44660  -0.44289  -0.43584
 Alpha  occ. eigenvalues --   -0.42912  -0.42689  -0.41981  -0.41555  -0.41210
 Alpha  occ. eigenvalues --   -0.40869  -0.40713  -0.40242  -0.39792  -0.38961
 Alpha  occ. eigenvalues --   -0.37978  -0.37856  -0.37481  -0.36562  -0.36305
 Alpha  occ. eigenvalues --   -0.35629  -0.34294  -0.33353  -0.32575  -0.31144
 Alpha  occ. eigenvalues --   -0.30697  -0.29016  -0.28239  -0.26860
 Alpha virt. eigenvalues --    0.00333   0.01160   0.03585   0.05440   0.05740
 Alpha virt. eigenvalues --    0.06190   0.07601   0.08307   0.08612   0.08651
 Alpha virt. eigenvalues --    0.09679   0.10081   0.10456   0.10545   0.11435

 Mulliken charges:
               1
     1  C   -0.034316
     2  C   -0.310686
     3  C    0.192387
     4  C   -0.653406
     5  C    0.478873
     6  H    0.254721
     7  H    0.268364
     8  H    0.278689
     9  H    0.278988
    10  O   -0.327248
    11  O   -0.382981
    12  C   -0.443576
    13  C   -0.682441
    14  C   -0.689582
    15  O   -0.636367
    16  Si   1.424767
    17  C   -1.082684
    18  C   -1.043209
    19  C   -1.057835
    20  H    0.233229
    21  H    0.241306
    22  H    0.241969
    23  H    0.236553
    24  H    0.243888
    25  H    0.245662
    26  H    0.245339
    27  H    0.248172
    28  H    0.248581
    29  H    0.255890
    30  H    0.239217
    31  H    0.246399
    32  H    0.241608
    33  H    0.242486
    34  H    0.236077
    35  H    0.228279
    36  H    0.237262
    37  C   -0.477222
    38  C   -0.179074
    39  C   -0.459795
    40  H    0.255127
    41  H    0.244662
    42  H    0.226869
    43  H    0.225259
    44  H    0.219801
 Sum of Mulliken charges =   0.00000

 Dipole moment (field-independent basis, Debye):
    X=              2.4842    Y=              0.9619    Z=             -4.2969  Tot=              5.0557
 Quadrupole moment (field-independent basis, Debye-Ang):
   XX=           -119.6667   YY=           -120.8698   ZZ=           -128.9096
   XY=             -9.3482   XZ=             11.5811   YZ=              6.9201

 Normal termination of Gaussian 09 at Wed Feb  6 11:29:47 2019.
