 Gaussian 09, Revision D.01,
 Gaussian 09:  ES64L-G09RevD.01 24-Apr-2013

 ----------------------------------------------------------------------
 # mPW1PW91/6-311g(d) geom=checkpoint nmr=giao scrf=(solvent=chloroform
 )
 ----------------------------------------------------------------------

 -------------
 P_ng_4ginp009
 -------------
 Structure from the checkpoint file:  "/home/ke291/rds/hpc-work/06Feb0927IP1/P_ng_4ginp009.chk"
 Charge =  0 Multiplicity = 1

                         Standard orientation:
 ---------------------------------------------------------------------
 Center     Atomic      Atomic             Coordinates (Angstroms)
 Number     Number       Type             X           Y           Z
 ---------------------------------------------------------------------
      1          6           0        2.270076    0.471706   -0.508489
      2          6           0        0.980352    1.190918   -0.966450
      3          6           0       -0.257287    0.778432   -0.131918
      4          6           0        0.075822    1.057926    1.340652
      5          6           0        1.410635    0.529885    1.819683
      6          1           0        3.112625    1.083101   -0.853846
      7          1           0        1.144193    2.252480   -0.740129
      8          1           0        0.098872    2.143465    1.499056
      9          1           0       -0.692229    0.661003    2.006051
     10          8           0        2.435052    0.471967    0.944653
     11          8           0        1.618418    0.244999    2.981969
     12          6           0        2.504586   -0.963559   -0.996436
     13          6           0        3.892956   -1.494830   -0.624795
     14          6           0        0.784662    1.062955   -2.483410
     15          8           0       -0.463830   -0.621024   -0.324359
     16         14           0       -1.695288   -1.721833    0.010006
     17          6           0       -3.078971   -1.602314   -1.268421
     18          6           0       -0.848342   -3.395284   -0.132848
     19          6           0       -2.411868   -1.514159    1.744526
     20          1           0       -1.567384   -4.208398    0.017384
     21          1           0       -0.395388   -3.528284   -1.120846
     22          1           0       -0.057759   -3.504459    0.616737
     23          1           0       -3.135632   -2.315816    1.934232
     24          1           0       -1.635506   -1.583190    2.513644
     25          1           0       -2.939906   -0.564066    1.877774
     26          1           0       -3.636898   -0.663360   -1.199605
     27          1           0       -2.685052   -1.686751   -2.286940
     28          1           0       -3.792352   -2.421695   -1.120822
     29          1           0        1.723297    1.251561   -3.014531
     30          1           0        0.431928    0.065605   -2.755808
     31          1           0        0.055704    1.790711   -2.849431
     32          1           0        2.391849   -0.976155   -2.085704
     33          1           0        1.723262   -1.609871   -0.591346
     34          1           0        4.028899   -2.514042   -0.999602
     35          1           0        4.686614   -0.873194   -1.055824
     36          1           0        4.032049   -1.510593    0.459207
     37          6           0       -1.539541    1.558527   -0.541407
     38          6           0       -1.428271    3.059838   -0.539627
     39          6           0       -2.061777    3.868062    0.312845
     40          1           0       -2.341867    1.260121    0.143479
     41          1           0       -1.827037    1.211191   -1.540272
     42          1           0       -0.792557    3.503727   -1.305217
     43          1           0       -1.954268    4.947442    0.261649
     44          1           0       -2.716735    3.478984    1.089087
 ---------------------------------------------------------------------

 SCF Done:  E(RmPW1PW91) =  -1064.38320892     A.U. after   12 cycles

      1  C    Isotropic =    98.0508   Anisotropy =    51.4969

      2  C    Isotropic =   147.8358   Anisotropy =     7.7436

      3  C    Isotropic =   105.8143   Anisotropy =    54.5252

      4  C    Isotropic =   144.5442   Anisotropy =    24.4295

      5  C    Isotropic =    11.8241   Anisotropy =    99.2589

      6  H    Isotropic =    27.6946   Anisotropy =     4.6704

      7  H    Isotropic =    29.9993   Anisotropy =     6.5606

      8  H    Isotropic =    29.5278   Anisotropy =     5.6704

      9  H    Isotropic =    29.7966   Anisotropy =     4.7336

     10  O    Isotropic =   100.5999   Anisotropy =   192.1711

     11  O    Isotropic =  -113.2628   Anisotropy =   577.3833

     12  C    Isotropic =   159.5773   Anisotropy =    13.3927

     13  C    Isotropic =   174.8966   Anisotropy =    23.8087

     14  C    Isotropic =   176.7252   Anisotropy =    12.9592

     15  O    Isotropic =   245.9445   Anisotropy =    40.9349

     16  Si   Isotropic =   332.3095   Anisotropy =    43.0009

     17  C    Isotropic =   184.8576   Anisotropy =    12.6321

     18  C    Isotropic =   186.8390   Anisotropy =    11.1486

     19  C    Isotropic =   185.6975   Anisotropy =     8.8232

     20  H    Isotropic =    32.3545   Anisotropy =    10.6241

     21  H    Isotropic =    31.9189   Anisotropy =     7.6240

     22  H    Isotropic =    31.9425   Anisotropy =     7.4505

     23  H    Isotropic =    32.1561   Anisotropy =    10.5707

     24  H    Isotropic =    31.7882   Anisotropy =     7.4474

     25  H    Isotropic =    31.8219   Anisotropy =     6.9451

     26  H    Isotropic =    31.9206   Anisotropy =     6.6756

     27  H    Isotropic =    31.8997   Anisotropy =     7.7776

     28  H    Isotropic =    32.2493   Anisotropy =    10.4038

     29  H    Isotropic =    31.3614   Anisotropy =    10.4148

     30  H    Isotropic =    30.8668   Anisotropy =     5.5508

     31  H    Isotropic =    30.9087   Anisotropy =     9.0130

     32  H    Isotropic =    30.5426   Anisotropy =     4.9053

     33  H    Isotropic =    29.9035   Anisotropy =    10.4948

     34  H    Isotropic =    31.0438   Anisotropy =    10.6044

     35  H    Isotropic =    31.3382   Anisotropy =    10.2469

     36  H    Isotropic =    30.5837   Anisotropy =     7.5971

     37  C    Isotropic =   139.9107   Anisotropy =    32.4116

     38  C    Isotropic =    46.6695   Anisotropy =   173.1795

     39  C    Isotropic =    63.0788   Anisotropy =   142.5882

     40  H    Isotropic =    30.0131   Anisotropy =     3.5295

     41  H    Isotropic =    29.3639   Anisotropy =     2.5338

     42  H    Isotropic =    26.0239   Anisotropy =     7.5214

     43  H    Isotropic =    26.7393   Anisotropy =     6.5599

     44  H    Isotropic =    26.7494   Anisotropy =     7.3422

 The electronic state is 1-A.
 Alpha  occ. eigenvalues --  -66.27405 -19.25303 -19.20651 -19.19164 -10.36478
 Alpha  occ. eigenvalues --  -10.31667 -10.30151 -10.25316 -10.24796 -10.24623
 Alpha  occ. eigenvalues --  -10.24522 -10.23439 -10.22878 -10.22752 -10.21617
 Alpha  occ. eigenvalues --  -10.20983 -10.20801 -10.20598  -5.33135  -3.67023
 Alpha  occ. eigenvalues --   -3.66729  -3.66713  -1.12668  -1.04391  -1.03842
 Alpha  occ. eigenvalues --   -0.85821  -0.82987  -0.80413  -0.77518  -0.73825
 Alpha  occ. eigenvalues --   -0.73076  -0.71737  -0.70314  -0.70083  -0.66480
 Alpha  occ. eigenvalues --   -0.63485  -0.62277  -0.58276  -0.55993  -0.53644
 Alpha  occ. eigenvalues --   -0.51395  -0.49623  -0.49072  -0.48302  -0.47646
 Alpha  occ. eigenvalues --   -0.46167  -0.45358  -0.44699  -0.44210  -0.43091
 Alpha  occ. eigenvalues --   -0.42533  -0.42360  -0.42257  -0.41593  -0.41169
 Alpha  occ. eigenvalues --   -0.41048  -0.40285  -0.39949  -0.39631  -0.38810
 Alpha  occ. eigenvalues --   -0.38673  -0.37989  -0.37446  -0.36286  -0.35596
 Alpha  occ. eigenvalues --   -0.35104  -0.34046  -0.33246  -0.32124  -0.30365
 Alpha  occ. eigenvalues --   -0.29992  -0.29058  -0.28808  -0.27020
 Alpha virt. eigenvalues --    0.00155   0.01364   0.03985   0.04996   0.06332
 Alpha virt. eigenvalues --    0.06653   0.07183   0.08024   0.08769   0.09139
 Alpha virt. eigenvalues --    0.09555   0.09715   0.10600   0.11332   0.11814

 Mulliken charges:
               1
     1  C   -0.021650
     2  C   -0.301566
     3  C    0.170694
     4  C   -0.566709
     5  C    0.483735
     6  H    0.240535
     7  H    0.253645
     8  H    0.284199
     9  H    0.277475
    10  O   -0.332973
    11  O   -0.391048
    12  C   -0.454863
    13  C   -0.665272
    14  C   -0.701781
    15  O   -0.631043
    16  Si   1.438236
    17  C   -1.063754
    18  C   -1.048206
    19  C   -1.085225
    20  H    0.235217
    21  H    0.240509
    22  H    0.244288
    23  H    0.243141
    24  H    0.252055
    25  H    0.245987
    26  H    0.243300
    27  H    0.242995
    28  H    0.236705
    29  H    0.241209
    30  H    0.255861
    31  H    0.242620
    32  H    0.231522
    33  H    0.276833
    34  H    0.225339
    35  H    0.217170
    36  H    0.237689
    37  C   -0.563877
    38  C   -0.189171
    39  C   -0.446866
    40  H    0.247734
    41  H    0.277867
    42  H    0.221683
    43  H    0.231095
    44  H    0.224667
 Sum of Mulliken charges =   0.00000

 Dipole moment (field-independent basis, Debye):
    X=             -3.3290    Y=              1.3350    Z=             -4.7895  Tot=              5.9836
 Quadrupole moment (field-independent basis, Debye-Ang):
   XX=           -121.4574   YY=           -110.8685   ZZ=           -131.2903
   XY=              2.2909   XZ=            -14.0205   YZ=             -1.1092

 Normal termination of Gaussian 09 at Wed Feb  6 11:19:23 2019.
