 Gaussian 09, Revision D.01,
 Gaussian 09:  EM64L-G09RevD.01 24-Apr-2013

 ---------------------------------------------------------------
 # b3lyp/6-31g(d,p) Opt=(maxcycles=50) scrf=(solvent=chloroform)
 ---------------------------------------------------------------

 -------------
 P_ng_2ginp018
 -------------
 Symbolic Z-matrix:
 Charge =  0 Multiplicity = 1

 SCF Done:  E(RB3LYP) =  -1064.39453638     A.U. after   13 cycles
 SCF Done:  E(RB3LYP) =  -1064.41242350     A.U. after   12 cycles
 SCF Done:  E(RB3LYP) =  -1064.41881497     A.U. after   11 cycles
 SCF Done:  E(RB3LYP) =  -1064.42158771     A.U. after   11 cycles
 SCF Done:  E(RB3LYP) =  -1064.42295879     A.U. after   11 cycles
 SCF Done:  E(RB3LYP) =  -1064.42306561     A.U. after   10 cycles
 SCF Done:  E(RB3LYP) =  -1064.42333432     A.U. after   10 cycles
 SCF Done:  E(RB3LYP) =  -1064.42370027     A.U. after   10 cycles
 SCF Done:  E(RB3LYP) =  -1064.42390289     A.U. after   10 cycles
 SCF Done:  E(RB3LYP) =  -1064.42405528     A.U. after   10 cycles
 SCF Done:  E(RB3LYP) =  -1064.42498575     A.U. after    9 cycles
 SCF Done:  E(RB3LYP) =  -1064.42504235     A.U. after    9 cycles
 SCF Done:  E(RB3LYP) =  -1064.42506385     A.U. after    8 cycles
 SCF Done:  E(RB3LYP) =  -1064.42507614     A.U. after    8 cycles
 SCF Done:  E(RB3LYP) =  -1064.42507889     A.U. after    7 cycles
 SCF Done:  E(RB3LYP) =  -1064.42507999     A.U. after    7 cycles
 SCF Done:  E(RB3LYP) =  -1064.42508111     A.U. after    7 cycles
 SCF Done:  E(RB3LYP) =  -1064.42508151     A.U. after    7 cycles
 SCF Done:  E(RB3LYP) =  -1064.42508185     A.U. after    6 cycles
 SCF Done:  E(RB3LYP) =  -1064.42508200     A.U. after    6 cycles
 Optimization completed.
    -- Stationary point found.

                         Standard orientation:
 ---------------------------------------------------------------------
 Center     Atomic      Atomic             Coordinates (Angstroms)
 Number     Number       Type             X           Y           Z
 ---------------------------------------------------------------------
      1          6           0       -2.313998   -0.552404   -0.369095
      2          6           0       -0.840825   -0.935031   -0.590670
      3          6           0        0.097988    0.290148   -0.398469
      4          6           0       -0.130545    0.811491    1.027090
      5          6           0       -1.581536    1.071038    1.381537
      6          1           0       -2.674791    0.000141   -1.246345
      7          1           0       -0.558266   -1.648618    0.195155
      8          1           0        0.223982    0.066591    1.749808
      9          1           0        0.419544    1.735372    1.213401
     10          8           0       -2.536917    0.350884    0.759485
     11          8           0       -1.914128    1.859363    2.241741
     12          6           0       -3.233860   -1.751649   -0.126581
     13          6           0       -4.713886   -1.378203    0.000131
     14          6           0       -0.659989   -1.630908   -1.948787
     15          8           0        1.449724   -0.114270   -0.597113
     16         14           0        2.676561   -0.786732    0.338523
     17          6           0        3.983534   -1.259518   -0.928856
     18          6           0        3.379736    0.479713    1.547107
     19          6           0        2.109621   -2.325308    1.276576
     20          1           0        4.270915    0.074127    2.040350
     21          1           0        3.677269    1.395936    1.026144
     22          1           0        2.667770    0.756392    2.330905
     23          1           0        2.965619   -2.771753    1.796404
     24          1           0        1.348739   -2.111051    2.034382
     25          1           0        1.705147   -3.083219    0.597392
     26          1           0        4.863876   -1.690941   -0.439484
     27          1           0        3.597467   -1.999709   -1.637392
     28          1           0        4.313800   -0.387066   -1.502116
     29          1           0        0.403314   -1.740304   -2.170908
     30          1           0       -1.107538   -2.627709   -1.946213
     31          1           0       -1.120843   -1.063138   -2.763695
     32          1           0       -2.893670   -2.267616    0.780083
     33          1           0       -3.105097   -2.453570   -0.957106
     34          1           0       -4.878964   -0.696844    0.838202
     35          1           0       -5.075972   -0.887300   -0.910205
     36          1           0       -5.323560   -2.272247    0.161621
     37          6           0       -0.172125    1.407835   -1.442443
     38          6           0        0.738933    2.598166   -1.313391
     39          6           0        0.330335    3.850138   -1.100351
     40          1           0       -1.214432    1.738291   -1.372042
     41          1           0       -0.038804    0.963423   -2.436008
     42          1           0        1.802427    2.391036   -1.415229
     43          1           0        1.033738    4.674742   -1.029252
     44          1           0       -0.723259    4.098427   -0.992872
 ---------------------------------------------------------------------

 The electronic state is 1-A.
 Alpha  occ. eigenvalues --  -66.14450 -19.18855 -19.13777 -19.13007 -10.31889
 Alpha  occ. eigenvalues --  -10.26158 -10.25416 -10.20137 -10.19884 -10.18991
 Alpha  occ. eigenvalues --  -10.18990 -10.18905 -10.18079 -10.17877 -10.17484
 Alpha  occ. eigenvalues --  -10.16274 -10.15952 -10.15912  -5.28495  -3.64594
 Alpha  occ. eigenvalues --   -3.64300  -3.64283  -1.09555  -1.01295  -1.00598
 Alpha  occ. eigenvalues --   -0.82886  -0.80315  -0.77535  -0.75003  -0.71443
 Alpha  occ. eigenvalues --   -0.69784  -0.69328  -0.67842  -0.67600  -0.63983
 Alpha  occ. eigenvalues --   -0.61497  -0.59457  -0.56242  -0.54008  -0.51379
 Alpha  occ. eigenvalues --   -0.49857  -0.47825  -0.47051  -0.46718  -0.45460
 Alpha  occ. eigenvalues --   -0.44214  -0.43007  -0.42914  -0.42259  -0.41570
 Alpha  occ. eigenvalues --   -0.40801  -0.40526  -0.40223  -0.39529  -0.39481
 Alpha  occ. eigenvalues --   -0.39001  -0.38719  -0.37959  -0.37689  -0.36830
 Alpha  occ. eigenvalues --   -0.36673  -0.36079  -0.35384  -0.34790  -0.34430
 Alpha  occ. eigenvalues --   -0.34031  -0.32365  -0.31750  -0.30809  -0.29084
 Alpha  occ. eigenvalues --   -0.28777  -0.26876  -0.26236  -0.25425
 Alpha virt. eigenvalues --    0.00618   0.01734   0.06437   0.07535   0.08734
 Alpha virt. eigenvalues --    0.09208   0.09745   0.10873   0.11180   0.11705
 Alpha virt. eigenvalues --    0.12178   0.12494   0.13254   0.13582   0.14303

 Mulliken charges:
               1
     1  C    0.179310
     2  C   -0.096930
     3  C    0.309978
     4  C   -0.298876
     5  C    0.589413
     6  H    0.112795
     7  H    0.101775
     8  H    0.149335
     9  H    0.148312
    10  O   -0.486341
    11  O   -0.499720
    12  C   -0.187930
    13  C   -0.328536
    14  C   -0.339787
    15  O   -0.653871
    16  Si   0.917050
    17  C   -0.535115
    18  C   -0.549196
    19  C   -0.557440
    20  H    0.119709
    21  H    0.121762
    22  H    0.119523
    23  H    0.122943
    24  H    0.118629
    25  H    0.121327
    26  H    0.118681
    27  H    0.120549
    28  H    0.122407
    29  H    0.132822
    30  H    0.113502
    31  H    0.112416
    32  H    0.108141
    33  H    0.111508
    34  H    0.126057
    35  H    0.106864
    36  H    0.107036
    37  C   -0.228581
    38  C   -0.033528
    39  C   -0.258444
    40  H    0.106465
    41  H    0.121477
    42  H    0.105830
    43  H    0.104886
    44  H    0.103797
 Sum of Mulliken charges =   0.00000

 Dipole moment (field-independent basis, Debye):
    X=              2.2231    Y=             -3.8529    Z=             -2.7477  Tot=              5.2285
 Quadrupole moment (field-independent basis, Debye-Ang):
   XX=           -118.2082   YY=           -119.1898   ZZ=           -124.8080
   XY=              7.1679   XZ=             11.8405   YZ=             -6.8064

 Normal termination of Gaussian 09 at Wed Feb  6 16:40:56 2019.
