 Gaussian 09, Revision D.01,
 Gaussian 09:  ES64L-G09RevD.01 24-Apr-2013

 ---------------------------------------------------------------
 # b3lyp/6-31g(d,p) Opt=(maxcycles=25) scrf=(solvent=chloroform)
 ---------------------------------------------------------------

 -------------
 P_ng_4ginp003
 -------------
 Symbolic Z-matrix:
 Charge =  0 Multiplicity = 1

 SCF Done:  E(RB3LYP) =  -1064.41682729     A.U. after   13 cycles
 SCF Done:  E(RB3LYP) =  -1064.42261844     A.U. after   10 cycles
 SCF Done:  E(RB3LYP) =  -1064.42339391     A.U. after   10 cycles
 SCF Done:  E(RB3LYP) =  -1064.42328583     A.U. after   10 cycles
 SCF Done:  E(RB3LYP) =  -1064.42376697     A.U. after   10 cycles
 SCF Done:  E(RB3LYP) =  -1064.42385209     A.U. after    9 cycles
 SCF Done:  E(RB3LYP) =  -1064.42387138     A.U. after   10 cycles
 SCF Done:  E(RB3LYP) =  -1064.42392130     A.U. after    9 cycles
 SCF Done:  E(RB3LYP) =  -1064.42393865     A.U. after    8 cycles
 SCF Done:  E(RB3LYP) =  -1064.42394942     A.U. after    8 cycles
 SCF Done:  E(RB3LYP) =  -1064.42395420     A.U. after    8 cycles
 SCF Done:  E(RB3LYP) =  -1064.42395697     A.U. after    8 cycles
 SCF Done:  E(RB3LYP) =  -1064.42395857     A.U. after    7 cycles
 SCF Done:  E(RB3LYP) =  -1064.42395978     A.U. after    7 cycles
 SCF Done:  E(RB3LYP) =  -1064.42396063     A.U. after    7 cycles
 SCF Done:  E(RB3LYP) =  -1064.42396127     A.U. after    7 cycles
 SCF Done:  E(RB3LYP) =  -1064.42396162     A.U. after    7 cycles
 SCF Done:  E(RB3LYP) =  -1064.42396171     A.U. after    6 cycles
 Optimization completed.
    -- Stationary point found.

                         Standard orientation:
 ---------------------------------------------------------------------
 Center     Atomic      Atomic             Coordinates (Angstroms)
 Number     Number       Type             X           Y           Z
 ---------------------------------------------------------------------
      1          6           0       -2.358478    0.222846    0.286580
      2          6           0       -0.990035    0.244894    0.981522
      3          6           0        0.119503   -0.008209   -0.076645
      4          6           0       -0.139176   -1.386923   -0.709060
      5          6           0       -1.582536   -1.695998   -1.076372
      6          1           0       -2.398606    1.039243   -0.442925
      7          1           0       -0.853182    1.268110    1.350643
      8          1           0        0.459337   -1.543927   -1.609040
      9          1           0        0.160526   -2.163428    0.003845
     10          8           0       -2.576852   -1.007795   -0.477223
     11          8           0       -1.871801   -2.594010   -1.839872
     12          6           0       -3.563114    0.361845    1.215796
     13          6           0       -4.887882    0.537623    0.467010
     14          6           0       -0.902851   -0.714386    2.179864
     15          8           0        1.362878   -0.005940    0.620013
     16         14           0        2.989446   -0.183557    0.221806
     17          6           0        3.284719   -1.493671   -1.104974
     18          6           0        3.731258    1.454820   -0.350866
     19          6           0        3.792162   -0.709738    1.839758
     20          1           0        4.808882    1.336155   -0.514509
     21          1           0        3.293049    1.808939   -1.289403
     22          1           0        3.596376    2.239674    0.400966
     23          1           0        4.877684   -0.804470    1.724515
     24          1           0        3.602528    0.023210    2.630892
     25          1           0        3.405037   -1.676340    2.178615
     26          1           0        4.364045   -1.623632   -1.247988
     27          1           0        2.869755   -2.465819   -0.820593
     28          1           0        2.860967   -1.214522   -2.075291
     29          1           0       -1.545782   -0.372859    2.994949
     30          1           0       -1.215294   -1.731065    1.920573
     31          1           0        0.121547   -0.755330    2.552101
     32          1           0       -3.382074    1.229038    1.862903
     33          1           0       -3.616461   -0.516147    1.867808
     34          1           0       -5.720578    0.633424    1.170192
     35          1           0       -4.872867    1.437384   -0.158268
     36          1           0       -5.087997   -0.319486   -0.181352
     37          6           0        0.135396    1.079321   -1.187921
     38          6           0        0.221855    2.494325   -0.685473
     39          6           0       -0.581632    3.487825   -1.069800
     40          1           0       -0.739182    0.970998   -1.838987
     41          1           0        1.004025    0.858679   -1.823353
     42          1           0        1.011723    2.697563    0.035349
     43          1           0       -0.463688    4.496765   -0.685541
     44          1           0       -1.380955    3.332150   -1.791236
 ---------------------------------------------------------------------

 The electronic state is 1-A.
 Alpha  occ. eigenvalues --  -66.14459 -19.18795 -19.13794 -19.12990 -10.31857
 Alpha  occ. eigenvalues --  -10.26168 -10.25025 -10.19892 -10.19709 -10.19534
 Alpha  occ. eigenvalues --  -10.19402 -10.18823 -10.18365 -10.17495 -10.17452
 Alpha  occ. eigenvalues --  -10.16194 -10.16009 -10.15882  -5.28495  -3.64594
 Alpha  occ. eigenvalues --   -3.64300  -3.64284  -1.09465  -1.01257  -1.00575
 Alpha  occ. eigenvalues --   -0.82876  -0.80047  -0.77999  -0.74611  -0.71290
 Alpha  occ. eigenvalues --   -0.70547  -0.68737  -0.67781  -0.67593  -0.64143
 Alpha  occ. eigenvalues --   -0.61232  -0.59943  -0.56557  -0.52239  -0.50551
 Alpha  occ. eigenvalues --   -0.50441  -0.49093  -0.48226  -0.45776  -0.44971
 Alpha  occ. eigenvalues --   -0.44387  -0.43190  -0.42709  -0.42342  -0.42045
 Alpha  occ. eigenvalues --   -0.40938  -0.40800  -0.40119  -0.39595  -0.39070
 Alpha  occ. eigenvalues --   -0.38895  -0.38455  -0.38004  -0.37831  -0.36792
 Alpha  occ. eigenvalues --   -0.36485  -0.36123  -0.35231  -0.34881  -0.34750
 Alpha  occ. eigenvalues --   -0.33834  -0.32452  -0.31533  -0.30414  -0.29029
 Alpha  occ. eigenvalues --   -0.28224  -0.27791  -0.26238  -0.25517
 Alpha virt. eigenvalues --    0.00569   0.01106   0.06284   0.07573   0.08674
 Alpha virt. eigenvalues --    0.09243   0.09645   0.10310   0.11634   0.11974
 Alpha virt. eigenvalues --    0.12533   0.12648   0.13172   0.13905   0.14558

 Mulliken charges:
               1
     1  C    0.168792
     2  C   -0.099697
     3  C    0.313178
     4  C   -0.298573
     5  C    0.594281
     6  H    0.113498
     7  H    0.110561
     8  H    0.140198
     9  H    0.160485
    10  O   -0.485239
    11  O   -0.500549
    12  C   -0.191663
    13  C   -0.330920
    14  C   -0.335903
    15  O   -0.645296
    16  Si   0.904446
    17  C   -0.556552
    18  C   -0.549517
    19  C   -0.532485
    20  H    0.120696
    21  H    0.119308
    22  H    0.121027
    23  H    0.118578
    24  H    0.121948
    25  H    0.120448
    26  H    0.123192
    27  H    0.123419
    28  H    0.120069
    29  H    0.111742
    30  H    0.107885
    31  H    0.130523
    32  H    0.109444
    33  H    0.115979
    34  H    0.107323
    35  H    0.106203
    36  H    0.124598
    37  C   -0.239207
    38  C   -0.024475
    39  C   -0.265034
    40  H    0.107429
    41  H    0.121735
    42  H    0.106318
    43  H    0.108053
    44  H    0.103753
 Sum of Mulliken charges =   0.00000

 Dipole moment (field-independent basis, Debye):
    X=              2.7166    Y=              3.5724    Z=              2.1233  Tot=              4.9649
 Quadrupole moment (field-independent basis, Debye-Ang):
   XX=           -116.2762   YY=           -125.1814   ZZ=           -121.5913
   XY=            -11.4606   XZ=             -8.4812   YZ=             -7.5758

 Normal termination of Gaussian 09 at Wed Feb  6 11:21:13 2019.
