 Gaussian 09, Revision D.01,
 Gaussian 09:  ES64L-G09RevD.01 24-Apr-2013

 ---------------------------------------------------------------
 # b3lyp/6-31g(d,p) Opt=(maxcycles=25) scrf=(solvent=chloroform)
 ---------------------------------------------------------------

 --------------------
 P_ng_correct1ginp010
 --------------------
 Symbolic Z-matrix:
 Charge =  0 Multiplicity = 1

 SCF Done:  E(RB3LYP) =  -1064.41487873     A.U. after   13 cycles
 SCF Done:  E(RB3LYP) =  -1064.42122035     A.U. after   11 cycles
 SCF Done:  E(RB3LYP) =  -1064.42229383     A.U. after   10 cycles
 SCF Done:  E(RB3LYP) =  -1064.42256237     A.U. after   10 cycles
 SCF Done:  E(RB3LYP) =  -1064.42266092     A.U. after    9 cycles
 SCF Done:  E(RB3LYP) =  -1064.42285658     A.U. after   10 cycles
 SCF Done:  E(RB3LYP) =  -1064.42294836     A.U. after   10 cycles
 SCF Done:  E(RB3LYP) =  -1064.42296779     A.U. after    9 cycles
 SCF Done:  E(RB3LYP) =  -1064.42300147     A.U. after    9 cycles
 SCF Done:  E(RB3LYP) =  -1064.42302356     A.U. after    9 cycles
 SCF Done:  E(RB3LYP) =  -1064.42303910     A.U. after    8 cycles
 SCF Done:  E(RB3LYP) =  -1064.42303647     A.U. after    9 cycles
 SCF Done:  E(RB3LYP) =  -1064.42305078     A.U. after    8 cycles
 SCF Done:  E(RB3LYP) =  -1064.42305256     A.U. after    7 cycles
 SCF Done:  E(RB3LYP) =  -1064.42305512     A.U. after    7 cycles
 SCF Done:  E(RB3LYP) =  -1064.42305588     A.U. after    7 cycles
 SCF Done:  E(RB3LYP) =  -1064.42305606     A.U. after    6 cycles
 Optimization completed.
    -- Stationary point found.

                         Standard orientation:
 ---------------------------------------------------------------------
 Center     Atomic      Atomic             Coordinates (Angstroms)
 Number     Number       Type             X           Y           Z
 ---------------------------------------------------------------------
      1          6           0        2.301764   -0.601861   -0.109883
      2          6           0        0.855635   -1.117194   -0.206284
      3          6           0       -0.208977   -0.003176    0.000238
      4          6           0        0.113786    1.127069   -0.990749
      5          6           0        1.557795    1.581972   -1.046882
      6          1           0        2.555063   -0.436540    0.942605
      7          1           0        0.689827   -1.457929   -1.237245
      8          1           0       -0.127215    0.757753   -1.995226
      9          1           0       -0.501032    2.013903   -0.822941
     10          8           0        2.523885    0.692989   -0.754112
     11          8           0        1.876505    2.695074   -1.414136
     12          6           0        3.326892   -1.549322   -0.738540
     13          6           0        4.778025   -1.091890   -0.561677
     14          6           0        0.644975   -2.318446    0.728521
     15          8           0       -1.445888   -0.603868   -0.392041
     16         14           0       -3.078042   -0.207552   -0.271140
     17          6           0       -3.751930   -0.623786    1.442393
     18          6           0       -3.414720    1.607165   -0.668577
     19          6           0       -3.899810   -1.309251   -1.555307
     20          1           0       -2.956528    2.294151    0.050476
     21          1           0       -3.054904    1.874257   -1.667572
     22          1           0       -4.495643    1.789935   -0.647464
     23          1           0       -4.987239   -1.174789   -1.544712
     24          1           0       -3.542557   -1.077877   -2.564121
     25          1           0       -3.692184   -2.366510   -1.360114
     26          1           0       -4.841694   -0.504378    1.456932
     27          1           0       -3.529732   -1.662338    1.710571
     28          1           0       -3.338931    0.020432    2.224738
     29          1           0        1.207045   -3.191234    0.387763
     30          1           0        0.962494   -2.097401    1.752859
     31          1           0       -0.412097   -2.591301    0.746586
     32          1           0        3.089423   -1.654860   -1.804690
     33          1           0        3.200082   -2.538761   -0.287220
     34          1           0        5.465827   -1.804974   -1.026131
     35          1           0        4.942078   -0.113000   -1.018602
     36          1           0        5.041194   -1.016647    0.499357
     37          6           0       -0.343992    0.518399    1.458995
     38          6           0        0.812378    1.281737    2.050174
     39          6           0        1.415840    0.972105    3.199605
     40          1           0       -0.602530   -0.324258    2.106944
     41          1           0       -1.213085    1.190424    1.458490
     42          1           0        1.130216    2.179359    1.520300
     43          1           0        2.217835    1.583014    3.602803
     44          1           0        1.124889    0.100614    3.781719
 ---------------------------------------------------------------------

 The electronic state is 1-A.
 Alpha  occ. eigenvalues --  -66.14363 -19.18628 -19.13709 -19.12874 -10.31732
 Alpha  occ. eigenvalues --  -10.26300 -10.24870 -10.19875 -10.19807 -10.19746
 Alpha  occ. eigenvalues --  -10.19536 -10.18740 -10.18533 -10.17908 -10.17327
 Alpha  occ. eigenvalues --  -10.16171 -10.15950 -10.15846  -5.28414  -3.64511
 Alpha  occ. eigenvalues --   -3.64219  -3.64203  -1.09421  -1.01116  -1.00506
 Alpha  occ. eigenvalues --   -0.82755  -0.80268  -0.77771  -0.74897  -0.71153
 Alpha  occ. eigenvalues --   -0.70275  -0.69177  -0.67763  -0.67523  -0.64255
 Alpha  occ. eigenvalues --   -0.61261  -0.59570  -0.56097  -0.54052  -0.51068
 Alpha  occ. eigenvalues --   -0.50426  -0.48380  -0.46822  -0.45847  -0.44841
 Alpha  occ. eigenvalues --   -0.44617  -0.43238  -0.42744  -0.42210  -0.41912
 Alpha  occ. eigenvalues --   -0.40872  -0.40607  -0.39931  -0.39761  -0.39212
 Alpha  occ. eigenvalues --   -0.38971  -0.38687  -0.38364  -0.37895  -0.36797
 Alpha  occ. eigenvalues --   -0.36399  -0.35946  -0.35488  -0.34456  -0.34346
 Alpha  occ. eigenvalues --   -0.33808  -0.32492  -0.31604  -0.30545  -0.29103
 Alpha  occ. eigenvalues --   -0.28339  -0.27837  -0.26136  -0.25397
 Alpha virt. eigenvalues --   -0.00012   0.01667   0.06407   0.07643   0.09031
 Alpha virt. eigenvalues --    0.09357   0.10112   0.10893   0.11007   0.11607
 Alpha virt. eigenvalues --    0.12063   0.12781   0.13101   0.13580   0.14114

 Mulliken charges:
               1
     1  C    0.181765
     2  C   -0.085297
     3  C    0.298089
     4  C   -0.289693
     5  C    0.594476
     6  H    0.114602
     7  H    0.105640
     8  H    0.159281
     9  H    0.136761
    10  O   -0.489244
    11  O   -0.509210
    12  C   -0.186853
    13  C   -0.328518
    14  C   -0.343683
    15  O   -0.644026
    16  Si   0.905331
    17  C   -0.548151
    18  C   -0.558933
    19  C   -0.531282
    20  H    0.120255
    21  H    0.123200
    22  H    0.122836
    23  H    0.118293
    24  H    0.121089
    25  H    0.122106
    26  H    0.119301
    27  H    0.119528
    28  H    0.117158
    29  H    0.113287
    30  H    0.111881
    31  H    0.130292
    32  H    0.106750
    33  H    0.109827
    34  H    0.105730
    35  H    0.125198
    36  H    0.106286
    37  C   -0.235915
    38  C   -0.051395
    39  C   -0.257127
    40  H    0.118837
    41  H    0.123781
    42  H    0.109187
    43  H    0.112839
    44  H    0.105721
 Sum of Mulliken charges =   0.00000

 Dipole moment (field-independent basis, Debye):
    X=             -2.7831    Y=             -3.6583    Z=              2.2489  Tot=              5.1172
 Quadrupole moment (field-independent basis, Debye-Ang):
   XX=           -117.4633   YY=           -127.0669   ZZ=           -117.1798
   XY=            -12.5654   XZ=              5.6123   YZ=              5.4201

 Normal termination of Gaussian 09 at Wed Feb  6 11:20:03 2019.
