 Gaussian 09, Revision D.01,
 Gaussian 09:  ES64L-G09RevD.01 24-Apr-2013

 ---------------------------------------------------------------
 # b3lyp/6-31g(d,p) Opt=(maxcycles=25) scrf=(solvent=chloroform)
 ---------------------------------------------------------------

 --------------------
 P_ng_correct1ginp013
 --------------------
 Symbolic Z-matrix:
 Charge =  0 Multiplicity = 1

 SCF Done:  E(RB3LYP) =  -1064.41425593     A.U. after   13 cycles
 SCF Done:  E(RB3LYP) =  -1064.41995405     A.U. after   10 cycles
 SCF Done:  E(RB3LYP) =  -1064.42053510     A.U. after   10 cycles
 SCF Done:  E(RB3LYP) =  -1064.42053406     A.U. after   10 cycles
 SCF Done:  E(RB3LYP) =  -1064.42100152     A.U. after   10 cycles
 SCF Done:  E(RB3LYP) =  -1064.42106148     A.U. after    9 cycles
 SCF Done:  E(RB3LYP) =  -1064.42108864     A.U. after    9 cycles
 SCF Done:  E(RB3LYP) =  -1064.42109962     A.U. after    9 cycles
 SCF Done:  E(RB3LYP) =  -1064.42109921     A.U. after    9 cycles
 SCF Done:  E(RB3LYP) =  -1064.42113119     A.U. after    9 cycles
 SCF Done:  E(RB3LYP) =  -1064.42114041     A.U. after    9 cycles
 SCF Done:  E(RB3LYP) =  -1064.42114092     A.U. after    8 cycles
 SCF Done:  E(RB3LYP) =  -1064.42114113     A.U. after    7 cycles
 SCF Done:  E(RB3LYP) =  -1064.42114135     A.U. after    6 cycles
 Optimization completed.
    -- Stationary point found.

                         Standard orientation:
 ---------------------------------------------------------------------
 Center     Atomic      Atomic             Coordinates (Angstroms)
 Number     Number       Type             X           Y           Z
 ---------------------------------------------------------------------
      1          6           0        2.438045   -0.423690    0.252018
      2          6           0        0.982075   -0.798640    0.640176
      3          6           0       -0.025845    0.363446    0.410580
      4          6           0        0.191098    0.866569   -1.024728
      5          6           0        1.597303    1.377775   -1.251111
      6          1           0        2.997404   -0.186554    1.163494
      7          1           0        0.651881   -1.587406   -0.048179
      8          1           0        0.015180    0.047868   -1.733352
      9          1           0       -0.490730    1.679323   -1.277232
     10          8           0        2.588587    0.799352   -0.542242
     11          8           0        1.868871    2.284291   -2.009676
     12          6           0        3.188429   -1.508913   -0.533613
     13          6           0        3.402197   -2.832097    0.207552
     14          6           0        0.924140   -1.367033    2.066675
     15          8           0       -1.349196   -0.128029    0.603007
     16         14           0       -2.530678   -0.876263   -0.332816
     17          6           0       -3.822723   -1.399865    0.929503
     18          6           0       -3.289405    0.330995   -1.568516
     19          6           0       -1.879276   -2.397799   -1.243691
     20          1           0       -3.622051    1.247367   -1.069506
     21          1           0       -2.592822    0.615424   -2.363311
     22          1           0       -4.165445   -0.123378   -2.046105
     23          1           0       -2.707551   -2.893881   -1.763655
     24          1           0       -1.124043   -2.156462   -1.999014
     25          1           0       -1.443482   -3.125604   -0.550983
     26          1           0       -4.672452   -1.886333    0.437631
     27          1           0       -3.403704   -2.107334    1.652564
     28          1           0       -4.206685   -0.538838    1.486272
     29          1           0        1.501972   -2.290107    2.149926
     30          1           0        1.327754   -0.661235    2.799193
     31          1           0       -0.110090   -1.588942    2.340341
     32          1           0        4.160019   -1.086852   -0.812240
     33          1           0        2.646170   -1.690130   -1.470677
     34          1           0        4.027855   -3.498880   -0.393063
     35          1           0        3.908318   -2.678289    1.166744
     36          1           0        2.461063   -3.354920    0.401250
     37          6           0        0.154077    1.514541    1.436945
     38          6           0       -0.761151    2.686743    1.210479
     39          6           0       -0.356786    3.941750    1.007967
     40          1           0        1.196685    1.850634    1.436481
     41          1           0       -0.050592    1.091293    2.426880
     42          1           0       -1.826769    2.464296    1.229951
     43          1           0       -1.065340    4.752408    0.864364
     44          1           0        0.697782    4.206604    0.981518
 ---------------------------------------------------------------------

 The electronic state is 1-A.
 Alpha  occ. eigenvalues --  -66.14456 -19.18854 -19.13793 -19.13066 -10.31788
 Alpha  occ. eigenvalues --  -10.26203 -10.25490 -10.20165 -10.19860 -10.19094
 Alpha  occ. eigenvalues --  -10.18813 -10.18770 -10.18211 -10.17949 -10.17766
 Alpha  occ. eigenvalues --  -10.16288 -10.15969 -10.15894  -5.28498  -3.64597
 Alpha  occ. eigenvalues --   -3.64303  -3.64287  -1.09538  -1.01297  -1.00596
 Alpha  occ. eigenvalues --   -0.82713  -0.80301  -0.77347  -0.75102  -0.71413
 Alpha  occ. eigenvalues --   -0.70073  -0.69578  -0.67851  -0.67598  -0.64066
 Alpha  occ. eigenvalues --   -0.60897  -0.59879  -0.55902  -0.53543  -0.51157
 Alpha  occ. eigenvalues --   -0.50345  -0.48234  -0.47378  -0.46572  -0.45235
 Alpha  occ. eigenvalues --   -0.43877  -0.43193  -0.42671  -0.42409  -0.41145
 Alpha  occ. eigenvalues --   -0.40748  -0.40670  -0.40368  -0.39562  -0.39475
 Alpha  occ. eigenvalues --   -0.38960  -0.38545  -0.38135  -0.37957  -0.37417
 Alpha  occ. eigenvalues --   -0.36759  -0.36146  -0.35729  -0.34561  -0.34330
 Alpha  occ. eigenvalues --   -0.34131  -0.32280  -0.31705  -0.30904  -0.28996
 Alpha  occ. eigenvalues --   -0.28611  -0.26943  -0.26235  -0.25291
 Alpha virt. eigenvalues --    0.00784   0.01849   0.06075   0.07400   0.08449
 Alpha virt. eigenvalues --    0.08755   0.09549   0.10245   0.10804   0.11836
 Alpha virt. eigenvalues --    0.12347   0.12602   0.13211   0.13896   0.14642

 Mulliken charges:
               1
     1  C    0.171719
     2  C   -0.093962
     3  C    0.306768
     4  C   -0.305579
     5  C    0.591544
     6  H    0.116133
     7  H    0.105067
     8  H    0.145158
     9  H    0.149056
    10  O   -0.484020
    11  O   -0.499486
    12  C   -0.185707
    13  C   -0.334409
    14  C   -0.342172
    15  O   -0.647238
    16  Si   0.913459
    17  C   -0.533880
    18  C   -0.550126
    19  C   -0.555911
    20  H    0.122005
    21  H    0.119459
    22  H    0.119965
    23  H    0.122944
    24  H    0.117617
    25  H    0.120686
    26  H    0.118595
    27  H    0.120687
    28  H    0.122647
    29  H    0.112091
    30  H    0.114554
    31  H    0.129198
    32  H    0.117622
    33  H    0.106115
    34  H    0.115375
    35  H    0.114100
    36  H    0.116683
    37  C   -0.225928
    38  C   -0.036330
    39  C   -0.257966
    40  H    0.108061
    41  H    0.122509
    42  H    0.103879
    43  H    0.104172
    44  H    0.104847
 Sum of Mulliken charges =   0.00000

 Dipole moment (field-independent basis, Debye):
    X=             -1.8131    Y=             -4.8009    Z=              1.9476  Tot=              5.4890
 Quadrupole moment (field-independent basis, Debye-Ang):
   XX=           -116.9532   YY=           -122.6296   ZZ=           -122.8437
   XY=             -9.7344   XZ=              9.7029   YZ=              7.9660

 Normal termination of Gaussian 09 at Wed Feb  6 11:10:20 2019.
