 Gaussian 09, Revision D.01,
 Gaussian 09:  ES64L-G09RevD.01 24-Apr-2013

 ---------------------------------------------------------------
 # b3lyp/6-31g(d,p) Opt=(maxcycles=25) scrf=(solvent=chloroform)
 ---------------------------------------------------------------

 -------------
 P_ng_3ginp002
 -------------
 Symbolic Z-matrix:
 Charge =  0 Multiplicity = 1

 SCF Done:  E(RB3LYP) =  -1064.41677077     A.U. after   13 cycles
 SCF Done:  E(RB3LYP) =  -1064.42235478     A.U. after   10 cycles
 SCF Done:  E(RB3LYP) =  -1064.42305492     A.U. after   10 cycles
 SCF Done:  E(RB3LYP) =  -1064.42304402     A.U. after   10 cycles
 SCF Done:  E(RB3LYP) =  -1064.42355572     A.U. after    9 cycles
 SCF Done:  E(RB3LYP) =  -1064.42367308     A.U. after    9 cycles
 SCF Done:  E(RB3LYP) =  -1064.42372664     A.U. after    9 cycles
 SCF Done:  E(RB3LYP) =  -1064.42374410     A.U. after    9 cycles
 SCF Done:  E(RB3LYP) =  -1064.42375160     A.U. after    8 cycles
 SCF Done:  E(RB3LYP) =  -1064.42375765     A.U. after    8 cycles
 SCF Done:  E(RB3LYP) =  -1064.42375919     A.U. after    7 cycles
 SCF Done:  E(RB3LYP) =  -1064.42375959     A.U. after    7 cycles
 SCF Done:  E(RB3LYP) =  -1064.42375978     A.U. after    6 cycles
 SCF Done:  E(RB3LYP) =  -1064.42375979     A.U. after    6 cycles
 SCF Done:  E(RB3LYP) =  -1064.42375983     A.U. after    6 cycles
 SCF Done:  E(RB3LYP) =  -1064.42375985     A.U. after    6 cycles
 SCF Done:  E(RB3LYP) =  -1064.42375986     A.U. after    6 cycles
 Optimization completed.
    -- Stationary point found.

                         Standard orientation:
 ---------------------------------------------------------------------
 Center     Atomic      Atomic             Coordinates (Angstroms)
 Number     Number       Type             X           Y           Z
 ---------------------------------------------------------------------
      1          6           0        2.429946   -0.110986    0.063173
      2          6           0        1.116690    0.244628    0.774643
      3          6           0       -0.065283    0.043257   -0.213875
      4          6           0       -0.076339   -1.433985   -0.638452
      5          6           0        1.274510   -2.021260   -1.017313
      6          1           0        2.580006    0.583482   -0.770555
      7          1           0        1.161965    1.317432    0.993289
      8          1           0       -0.439429   -2.044513    0.195381
      9          1           0       -0.751189   -1.615061   -1.479418
     10          8           0        2.396527   -1.449862   -0.532148
     11          8           0        1.372424   -3.033965   -1.678812
     12          6           0        3.694109   -0.087052    0.922608
     13          6           0        4.024111    1.302445    1.477605
     14          6           0        0.922053   -0.511842    2.098503
     15          8           0       -1.258171    0.405111    0.478175
     16         14           0       -2.891128    0.012215    0.354839
     17          6           0       -3.531279    0.107767   -1.418965
     18          6           0       -3.230467   -1.708416    1.053909
     19          6           0       -3.740015    1.309355    1.419590
     20          1           0       -4.311772   -1.874113    1.127965
     21          1           0       -2.820244   -2.507099    0.427681
     22          1           0       -2.810033   -1.817920    2.059305
     23          1           0       -4.822259    1.140680    1.448722
     24          1           0       -3.369511    1.280158    2.449565
     25          1           0       -3.568102    2.318059    1.029907
     26          1           0       -4.610197   -0.087588   -1.426781
     27          1           0       -3.372712    1.099466   -1.855234
     28          1           0       -3.063981   -0.631476   -2.078117
     29          1           0       -0.080086   -0.329605    2.489168
     30          1           0        1.055062   -1.592324    1.983228
     31          1           0        1.641337   -0.173778    2.848879
     32          1           0        4.517885   -0.435401    0.289964
     33          1           0        3.599641   -0.813967    1.735874
     34          1           0        4.987067    1.286230    1.995948
     35          1           0        4.089874    2.046060    0.675812
     36          1           0        3.271301    1.649808    2.192061
     37          6           0        0.054260    0.947356   -1.474050
     38          6           0        0.184583    2.415296   -1.175764
     39          6           0        1.112839    3.221223   -1.694657
     40          1           0       -0.857553    0.774316   -2.059490
     41          1           0        0.885814    0.618915   -2.107938
     42          1           0       -0.555316    2.824814   -0.489703
     43          1           0        1.146064    4.280088   -1.455234
     44          1           0        1.867609    2.855327   -2.387469
 ---------------------------------------------------------------------

 The electronic state is 1-A.
 Alpha  occ. eigenvalues --  -66.14456 -19.18845 -19.13802 -19.13095 -10.31960
 Alpha  occ. eigenvalues --  -10.26167 -10.25088 -10.20123 -10.19714 -10.19256
 Alpha  occ. eigenvalues --  -10.19230 -10.18801 -10.18200 -10.18027 -10.17627
 Alpha  occ. eigenvalues --  -10.16224 -10.16023 -10.15920  -5.28500  -3.64598
 Alpha  occ. eigenvalues --   -3.64304  -3.64291  -1.09527  -1.01335  -1.00594
 Alpha  occ. eigenvalues --   -0.82921  -0.80089  -0.77909  -0.74584  -0.71375
 Alpha  occ. eigenvalues --   -0.70637  -0.69095  -0.67789  -0.67635  -0.64548
 Alpha  occ. eigenvalues --   -0.60665  -0.59603  -0.56364  -0.52321  -0.50847
 Alpha  occ. eigenvalues --   -0.50645  -0.49338  -0.48871  -0.45834  -0.44671
 Alpha  occ. eigenvalues --   -0.44339  -0.43027  -0.42907  -0.42462  -0.41755
 Alpha  occ. eigenvalues --   -0.40896  -0.40723  -0.40509  -0.39538  -0.39105
 Alpha  occ. eigenvalues --   -0.38809  -0.38500  -0.37958  -0.37421  -0.37296
 Alpha  occ. eigenvalues --   -0.36540  -0.36077  -0.35537  -0.35271  -0.34743
 Alpha  occ. eigenvalues --   -0.33765  -0.32457  -0.31500  -0.30515  -0.29147
 Alpha  occ. eigenvalues --   -0.28494  -0.27562  -0.26310  -0.25409
 Alpha virt. eigenvalues --    0.00544   0.01292   0.06189   0.07470   0.08514
 Alpha virt. eigenvalues --    0.09077   0.09398   0.10028   0.10734   0.11661
 Alpha virt. eigenvalues --    0.12266   0.13247   0.13788   0.14045   0.14425

 Mulliken charges:
               1
     1  C    0.171588
     2  C   -0.091868
     3  C    0.312909
     4  C   -0.312974
     5  C    0.592030
     6  H    0.114816
     7  H    0.113672
     8  H    0.162979
     9  H    0.142177
    10  O   -0.490073
    11  O   -0.499055
    12  C   -0.196343
    13  C   -0.335355
    14  C   -0.340803
    15  O   -0.656297
    16  Si   0.919116
    17  C   -0.555763
    18  C   -0.552774
    19  C   -0.534684
    20  H    0.120644
    21  H    0.119280
    22  H    0.120725
    23  H    0.118958
    24  H    0.122243
    25  H    0.121057
    26  H    0.122657
    27  H    0.122626
    28  H    0.120429
    29  H    0.131895
    30  H    0.109091
    31  H    0.113216
    32  H    0.114321
    33  H    0.113249
    34  H    0.114733
    35  H    0.113538
    36  H    0.116008
    37  C   -0.227016
    38  C   -0.028224
    39  C   -0.264971
    40  H    0.121532
    41  H    0.104980
    42  H    0.106745
    43  H    0.106662
    44  H    0.102323
 Sum of Mulliken charges =   0.00000

 Dipole moment (field-independent basis, Debye):
    X=             -1.9339    Y=              3.7878    Z=              2.0689  Tot=              4.7294
 Quadrupole moment (field-independent basis, Debye-Ang):
   XX=           -111.5874   YY=           -131.1665   ZZ=           -120.2108
   XY=             11.1053   XZ=              5.5165   YZ=             -8.8156

 Normal termination of Gaussian 09 at Wed Feb  6 11:18:14 2019.
