 Gaussian 09, Revision D.01,
 Gaussian 09:  ES64L-G09RevD.01 24-Apr-2013

 ---------------------------------------------------------------
 # b3lyp/6-31g(d,p) Opt=(maxcycles=25) scrf=(solvent=chloroform)
 ---------------------------------------------------------------

 -------------
 P_ng_4ginp006
 -------------
 Symbolic Z-matrix:
 Charge =  0 Multiplicity = 1

 SCF Done:  E(RB3LYP) =  -1064.41387381     A.U. after   13 cycles
 SCF Done:  E(RB3LYP) =  -1064.41972251     A.U. after   10 cycles
 SCF Done:  E(RB3LYP) =  -1064.42042645     A.U. after   11 cycles
 SCF Done:  E(RB3LYP) =  -1064.42043122     A.U. after   10 cycles
 SCF Done:  E(RB3LYP) =  -1064.42079726     A.U. after    9 cycles
 SCF Done:  E(RB3LYP) =  -1064.42084325     A.U. after    9 cycles
 SCF Done:  E(RB3LYP) =  -1064.42086230     A.U. after    9 cycles
 SCF Done:  E(RB3LYP) =  -1064.42086992     A.U. after    8 cycles
 SCF Done:  E(RB3LYP) =  -1064.42087542     A.U. after    8 cycles
 SCF Done:  E(RB3LYP) =  -1064.42087798     A.U. after    8 cycles
 SCF Done:  E(RB3LYP) =  -1064.42088050     A.U. after    7 cycles
 SCF Done:  E(RB3LYP) =  -1064.42088204     A.U. after    8 cycles
 SCF Done:  E(RB3LYP) =  -1064.42088233     A.U. after    7 cycles
 SCF Done:  E(RB3LYP) =  -1064.42088244     A.U. after    6 cycles
 SCF Done:  E(RB3LYP) =  -1064.42088252     A.U. after    6 cycles
 SCF Done:  E(RB3LYP) =  -1064.42088258     A.U. after    6 cycles
 SCF Done:  E(RB3LYP) =  -1064.42088262     A.U. after    6 cycles
 SCF Done:  E(RB3LYP) =  -1064.42088265     A.U. after    6 cycles
 Optimization completed.
    -- Stationary point found.

                         Standard orientation:
 ---------------------------------------------------------------------
 Center     Atomic      Atomic             Coordinates (Angstroms)
 Number     Number       Type             X           Y           Z
 ---------------------------------------------------------------------
      1          6           0       -2.172252   -0.883042    0.702953
      2          6           0       -1.083003   -0.012742    1.354855
      3          6           0       -0.008582    0.464220    0.335951
      4          6           0       -0.658392    0.638171   -1.070395
      5          6           0       -2.171446    0.720810   -1.129017
      6          1           0       -2.952310   -1.052663    1.453513
      7          1           0       -1.625827    0.886130    1.670811
      8          1           0       -0.274215    1.515498   -1.592464
      9          1           0       -0.387365   -0.238439   -1.667141
     10          8           0       -2.872661   -0.087388   -0.303889
     11          8           0       -2.771631    1.424292   -1.914723
     12          6           0       -1.763620   -2.246362    0.137029
     13          6           0       -2.950852   -3.042583   -0.414490
     14          6           0       -0.498739   -0.665105    2.612632
     15          8           0        0.994191   -0.549944    0.261967
     16         14           0        2.562541   -0.635990   -0.348603
     17          6           0        2.887768   -2.484502   -0.476449
     18          6           0        2.719382    0.167957   -2.050605
     19          6           0        3.804084    0.140557    0.842233
     20          1           0        3.737396    0.019012   -2.429633
     21          1           0        2.030700   -0.277200   -2.776215
     22          1           0        2.535202    1.247067   -2.030724
     23          1           0        3.705244   -0.286182    1.846116
     24          1           0        4.826030   -0.057407    0.497937
     25          1           0        3.688495    1.225496    0.925455
     26          1           0        2.194172   -2.963763   -1.175122
     27          1           0        3.906868   -2.677140   -0.829913
     28          1           0        2.773999   -2.973350    0.496746
     29          1           0       -1.301974   -0.936000    3.305846
     30          1           0        0.073012   -1.562642    2.372480
     31          1           0        0.169051    0.023663    3.137751
     32          1           0       -1.291330   -2.808962    0.950197
     33          1           0       -0.994795   -2.127605   -0.631437
     34          1           0       -3.704489   -3.218236    0.361492
     35          1           0       -3.438205   -2.511447   -1.236798
     36          1           0       -2.622791   -4.017391   -0.787647
     37          6           0        0.640382    1.803776    0.795178
     38          6           0       -0.285716    2.986220    0.893824
     39          6           0       -0.255599    4.041198    0.077099
     40          1           0        1.437999    2.042966    0.083426
     41          1           0        1.119115    1.624028    1.765317
     42          1           0       -1.017141    2.974370    1.700952
     43          1           0       -0.945383    4.871567    0.193755
     44          1           0        0.463265    4.115372   -0.735876
 ---------------------------------------------------------------------

 The electronic state is 1-A.
 Alpha  occ. eigenvalues --  -66.14408 -19.18509 -19.13698 -19.12769 -10.31435
 Alpha  occ. eigenvalues --  -10.26394 -10.24836 -10.19887 -10.19656 -10.19466
 Alpha  occ. eigenvalues --  -10.19340 -10.18617 -10.18429 -10.17905 -10.17446
 Alpha  occ. eigenvalues --  -10.16220 -10.15974 -10.15909  -5.28456  -3.64552
 Alpha  occ. eigenvalues --   -3.64262  -3.64245  -1.09304  -1.01081  -1.00431
 Alpha  occ. eigenvalues --   -0.82563  -0.79977  -0.77096  -0.75272  -0.71177
 Alpha  occ. eigenvalues --   -0.70262  -0.69125  -0.67797  -0.67569  -0.63846
 Alpha  occ. eigenvalues --   -0.61602  -0.59913  -0.55775  -0.52265  -0.51591
 Alpha  occ. eigenvalues --   -0.49433  -0.48692  -0.47356  -0.46217  -0.44881
 Alpha  occ. eigenvalues --   -0.44051  -0.43375  -0.43134  -0.41841  -0.41452
 Alpha  occ. eigenvalues --   -0.40708  -0.40611  -0.40040  -0.39793  -0.39169
 Alpha  occ. eigenvalues --   -0.38927  -0.38484  -0.37989  -0.37708  -0.37619
 Alpha  occ. eigenvalues --   -0.36578  -0.36273  -0.35718  -0.34549  -0.33973
 Alpha  occ. eigenvalues --   -0.33359  -0.32772  -0.31691  -0.30352  -0.28767
 Alpha  occ. eigenvalues --   -0.28220  -0.27789  -0.26412  -0.25053
 Alpha virt. eigenvalues --    0.00071   0.01937   0.06338   0.07112   0.09065
 Alpha virt. eigenvalues --    0.09291   0.09559   0.10151   0.10549   0.11459
 Alpha virt. eigenvalues --    0.12238   0.12920   0.13407   0.14218   0.14618

 Mulliken charges:
               1
     1  C    0.151710
     2  C   -0.101013
     3  C    0.329448
     4  C   -0.295366
     5  C    0.586859
     6  H    0.112202
     7  H    0.109559
     8  H    0.135887
     9  H    0.159540
    10  O   -0.478405
    11  O   -0.503724
    12  C   -0.185976
    13  C   -0.326849
    14  C   -0.323543
    15  O   -0.646128
    16  Si   0.912211
    17  C   -0.533335
    18  C   -0.558456
    19  C   -0.546444
    20  H    0.123267
    21  H    0.121171
    22  H    0.119821
    23  H    0.120289
    24  H    0.119169
    25  H    0.117724
    26  H    0.120069
    27  H    0.118497
    28  H    0.121496
    29  H    0.105453
    30  H    0.133197
    31  H    0.109698
    32  H    0.111924
    33  H    0.113904
    34  H    0.106943
    35  H    0.120246
    36  H    0.106365
    37  C   -0.246632
    38  C   -0.047697
    39  C   -0.248388
    40  H    0.113623
    41  H    0.122768
    42  H    0.103094
    43  H    0.111516
    44  H    0.104307
 Sum of Mulliken charges =   0.00000

 Dipole moment (field-independent basis, Debye):
    X=              4.3971    Y=             -1.7371    Z=              2.8677  Tot=              5.5295
 Quadrupole moment (field-independent basis, Debye-Ang):
   XX=           -128.0436   YY=           -116.4953   ZZ=           -119.0956
   XY=              7.2201   XZ=            -13.0602   YZ=              4.2541

 Normal termination of Gaussian 09 at Wed Feb  6 11:22:28 2019.
