 Gaussian 09, Revision D.01,
 Gaussian 09:  ES64L-G09RevD.01 24-Apr-2013

 ---------------------------------------------------------------
 # b3lyp/6-31g(d,p) Opt=(maxcycles=25) scrf=(solvent=chloroform)
 ---------------------------------------------------------------

 --------------------
 P_ng_correct1ginp002
 --------------------
 Symbolic Z-matrix:
 Charge =  0 Multiplicity = 1

 SCF Done:  E(RB3LYP) =  -1064.41702300     A.U. after   13 cycles
 SCF Done:  E(RB3LYP) =  -1064.42262338     A.U. after   10 cycles
 SCF Done:  E(RB3LYP) =  -1064.42351027     A.U. after   10 cycles
 SCF Done:  E(RB3LYP) =  -1064.42346281     A.U. after   10 cycles
 SCF Done:  E(RB3LYP) =  -1064.42401973     A.U. after   10 cycles
 SCF Done:  E(RB3LYP) =  -1064.42415985     A.U. after    9 cycles
 SCF Done:  E(RB3LYP) =  -1064.42420722     A.U. after    9 cycles
 SCF Done:  E(RB3LYP) =  -1064.42422436     A.U. after    8 cycles
 SCF Done:  E(RB3LYP) =  -1064.42423646     A.U. after    8 cycles
 SCF Done:  E(RB3LYP) =  -1064.42424313     A.U. after    8 cycles
 SCF Done:  E(RB3LYP) =  -1064.42424481     A.U. after    8 cycles
 SCF Done:  E(RB3LYP) =  -1064.42424542     A.U. after    7 cycles
 SCF Done:  E(RB3LYP) =  -1064.42424561     A.U. after    7 cycles
 SCF Done:  E(RB3LYP) =  -1064.42424570     A.U. after    6 cycles
 SCF Done:  E(RB3LYP) =  -1064.42424577     A.U. after    6 cycles
 SCF Done:  E(RB3LYP) =  -1064.42424580     A.U. after    6 cycles
 SCF Done:  E(RB3LYP) =  -1064.42424586     A.U. after    6 cycles
 SCF Done:  E(RB3LYP) =  -1064.42424589     A.U. after    6 cycles
 Optimization completed.
    -- Stationary point found.

                         Standard orientation:
 ---------------------------------------------------------------------
 Center     Atomic      Atomic             Coordinates (Angstroms)
 Number     Number       Type             X           Y           Z
 ---------------------------------------------------------------------
      1          6           0        2.416911   -0.252933    0.576080
      2          6           0        0.967211   -0.723753    0.765246
      3          6           0       -0.039320    0.409065    0.417834
      4          6           0        0.225230    0.813782   -1.040157
      5          6           0        1.675678    1.107729   -1.374685
      6          1           0        2.661910    0.450336    1.381428
      7          1           0        0.763737   -1.519939    0.039033
      8          1           0       -0.067100   -0.008124   -1.704923
      9          1           0       -0.358588    1.689437   -1.328873
     10          8           0        2.642413    0.492251   -0.662829
     11          8           0        1.999114    1.821390   -2.301023
     12          6           0        3.478918   -1.359779    0.581399
     13          6           0        3.308916   -2.436215   -0.494611
     14          6           0        0.774297   -1.308124    2.172773
     15          8           0       -1.367910   -0.074189    0.594209
     16         14           0       -2.506861   -0.901313   -0.327368
     17          6           0       -3.244426    0.212929   -1.659867
     18          6           0       -1.801806   -2.465347   -1.118286
     19          6           0       -3.831978   -1.362881    0.924857
     20          1           0       -1.043316   -2.257785   -1.880345
     21          1           0       -1.354957   -3.127889   -0.369442
     22          1           0       -2.608765   -3.021177   -1.610531
     23          1           0       -4.662223   -1.887008    0.438505
     24          1           0       -3.430557   -2.019690    1.703618
     25          1           0       -4.239809   -0.472762    1.414999
     26          1           0       -3.621338    1.145671   -1.227001
     27          1           0       -2.523587    0.474587   -2.440853
     28          1           0       -4.087579   -0.292045   -2.145743
     29          1           0        1.294781   -2.263896    2.275464
     30          1           0        1.156138   -0.638360    2.950537
     31          1           0       -0.286925   -1.478992    2.364096
     32          1           0        3.493329   -1.814435    1.577854
     33          1           0        4.449885   -0.868089    0.455252
     34          1           0        4.161986   -3.120984   -0.482446
     35          1           0        2.406440   -3.036256   -0.341495
     36          1           0        3.254716   -1.987762   -1.490997
     37          6           0        0.098391    1.636310    1.360067
     38          6           0       -0.897190    2.730778    1.087702
     39          6           0       -0.579626    3.987760    0.773127
     40          1           0        1.113129    2.044126    1.292654
     41          1           0       -0.039674    1.277010    2.387017
     42          1           0       -1.944497    2.447569    1.172217
     43          1           0       -1.342037    4.742123    0.601458
     44          1           0        0.454799    4.311167    0.679960
 ---------------------------------------------------------------------

 The electronic state is 1-A.
 Alpha  occ. eigenvalues --  -66.14444 -19.18860 -19.13755 -19.13027 -10.31872
 Alpha  occ. eigenvalues --  -10.26145 -10.25382 -10.20024 -10.19884 -10.19004
 Alpha  occ. eigenvalues --  -10.18998 -10.18913 -10.18080 -10.17887 -10.17740
 Alpha  occ. eigenvalues --  -10.16264 -10.15941 -10.15901  -5.28487  -3.64586
 Alpha  occ. eigenvalues --   -3.64292  -3.64275  -1.09533  -1.01296  -1.00589
 Alpha  occ. eigenvalues --   -0.82897  -0.80264  -0.77469  -0.74889  -0.71422
 Alpha  occ. eigenvalues --   -0.69978  -0.69480  -0.67830  -0.67584  -0.64485
 Alpha  occ. eigenvalues --   -0.60464  -0.60028  -0.56211  -0.53537  -0.51374
 Alpha  occ. eigenvalues --   -0.50159  -0.48138  -0.47205  -0.46697  -0.45354
 Alpha  occ. eigenvalues --   -0.43915  -0.43069  -0.42766  -0.42233  -0.41577
 Alpha  occ. eigenvalues --   -0.41221  -0.40675  -0.40446  -0.39477  -0.39195
 Alpha  occ. eigenvalues --   -0.38890  -0.38611  -0.37946  -0.37770  -0.37329
 Alpha  occ. eigenvalues --   -0.36267  -0.36079  -0.35407  -0.35006  -0.34285
 Alpha  occ. eigenvalues --   -0.34081  -0.32393  -0.31743  -0.30785  -0.29124
 Alpha  occ. eigenvalues --   -0.28743  -0.26852  -0.26227  -0.25435
 Alpha virt. eigenvalues --    0.00538   0.01722   0.06246   0.07550   0.08312
 Alpha virt. eigenvalues --    0.09118   0.09594   0.10695   0.11543   0.11774
 Alpha virt. eigenvalues --    0.12207   0.12639   0.13230   0.14191   0.14364

 Mulliken charges:
               1
     1  C    0.171129
     2  C   -0.094456
     3  C    0.310990
     4  C   -0.298576
     5  C    0.589817
     6  H    0.113882
     7  H    0.104555
     8  H    0.150231
     9  H    0.147771
    10  O   -0.486688
    11  O   -0.499539
    12  C   -0.191487
    13  C   -0.332201
    14  C   -0.340912
    15  O   -0.654036
    16  Si   0.917626
    17  C   -0.549425
    18  C   -0.558352
    19  C   -0.535014
    20  H    0.119174
    21  H    0.120796
    22  H    0.123197
    23  H    0.118685
    24  H    0.120329
    25  H    0.122302
    26  H    0.121483
    27  H    0.119509
    28  H    0.119655
    29  H    0.114282
    30  H    0.111976
    31  H    0.132379
    32  H    0.111031
    33  H    0.116044
    34  H    0.111653
    35  H    0.110673
    36  H    0.119970
    37  C   -0.228716
    38  C   -0.032977
    39  C   -0.258595
    40  H    0.106093
    41  H    0.121248
    42  H    0.106161
    43  H    0.104901
    44  H    0.103432
 Sum of Mulliken charges =   0.00000

 Dipole moment (field-independent basis, Debye):
    X=             -2.0634    Y=             -3.6213    Z=              3.1002  Tot=              5.1945
 Quadrupole moment (field-independent basis, Debye-Ang):
   XX=           -118.4772   YY=           -119.0802   ZZ=           -125.0311
   XY=             -6.7225   XZ=             12.7929   YZ=              6.6944

 Normal termination of Gaussian 09 at Wed Feb  6 11:21:33 2019.
