 Gaussian 09, Revision D.01,
 Gaussian 09:  EM64L-G09RevD.01 24-Apr-2013

 ---------------------------------------------------------------
 # b3lyp/6-31g(d,p) Opt=(maxcycles=50) scrf=(solvent=chloroform)
 ---------------------------------------------------------------

 -------------
 P_ng_2ginp015
 -------------
 Symbolic Z-matrix:
 Charge =  0 Multiplicity = 1

 SCF Done:  E(RB3LYP) =  -1064.42266234     A.U. after   13 cycles
 SCF Done:  E(RB3LYP) =  -1064.42266593     A.U. after    9 cycles
 SCF Done:  E(RB3LYP) =  -1064.42268467     A.U. after    9 cycles
 SCF Done:  E(RB3LYP) =  -1064.42268708     A.U. after    8 cycles
 SCF Done:  E(RB3LYP) =  -1064.42269110     A.U. after    8 cycles
 SCF Done:  E(RB3LYP) =  -1064.42269321     A.U. after    7 cycles
 SCF Done:  E(RB3LYP) =  -1064.42269216     A.U. after    8 cycles
 SCF Done:  E(RB3LYP) =  -1064.42269265     A.U. after    7 cycles
 SCF Done:  E(RB3LYP) =  -1064.42269277     A.U. after    7 cycles
 SCF Done:  E(RB3LYP) =  -1064.42269372     A.U. after    7 cycles
 SCF Done:  E(RB3LYP) =  -1064.42269418     A.U. after    6 cycles
 SCF Done:  E(RB3LYP) =  -1064.42269504     A.U. after    7 cycles
 SCF Done:  E(RB3LYP) =  -1064.42269569     A.U. after    7 cycles
 SCF Done:  E(RB3LYP) =  -1064.42269590     A.U. after    6 cycles
 SCF Done:  E(RB3LYP) =  -1064.42269560     A.U. after    6 cycles
 SCF Done:  E(RB3LYP) =  -1064.42269529     A.U. after    6 cycles
 Optimization completed.
    -- Stationary point found.

                         Standard orientation:
 ---------------------------------------------------------------------
 Center     Atomic      Atomic             Coordinates (Angstroms)
 Number     Number       Type             X           Y           Z
 ---------------------------------------------------------------------
      1          6           0       -2.537355    0.116743   -0.609594
      2          6           0       -1.161507   -0.527840   -0.832643
      3          6           0       -0.013687    0.387688   -0.315336
      4          6           0       -0.284453    0.611809    1.181228
      5          6           0       -1.682089    1.100540    1.513005
      6          1           0       -2.656522    0.940735   -1.323840
      7          1           0       -1.097215   -1.432834   -0.215757
      8          1           0       -0.174155   -0.345079    1.706219
      9          1           0        0.420245    1.307639    1.637583
     10          8           0       -2.699819    0.733033    0.708736
     11          8           0       -1.927539    1.749977    2.508119
     12          6           0       -3.741459   -0.819818   -0.769899
     13          6           0       -3.755841   -2.034856    0.162513
     14          6           0       -0.998272   -0.947645   -2.300836
     15          8           0        1.217055   -0.284291   -0.538809
     16         14           0        2.413799   -1.052119    0.354970
     17          6           0        3.214218    0.101297    1.615781
     18          6           0        1.752297   -2.592726    1.226044
     19          6           0        3.673960   -1.554606   -0.947834
     20          1           0        2.581333   -3.147705    1.681159
     21          1           0        1.043336   -2.358780    2.027231
     22          1           0        1.252854   -3.264934    0.520138
     23          1           0        4.524888   -2.070894   -0.489525
     24          1           0        3.230805   -2.230424   -1.686694
     25          1           0        4.060015   -0.680180   -1.481594
     26          1           0        4.118620   -0.365104    2.023874
     27          1           0        3.505454    1.047495    1.149140
     28          1           0        2.554568    0.329047    2.459066
     29          1           0        0.029932   -1.266184   -2.482361
     30          1           0       -1.659784   -1.782780   -2.545760
     31          1           0       -1.229819   -0.128566   -2.989877
     32          1           0       -3.787468   -1.141085   -1.816101
     33          1           0       -4.638553   -0.215506   -0.595705
     34          1           0       -2.943554   -2.734732   -0.056992
     35          1           0       -3.666828   -1.726946    1.208588
     36          1           0       -4.696691   -2.582506    0.054767
     37          6           0        0.060019    1.732593   -1.092573
     38          6           0        1.136556    2.678252   -0.632525
     39          6           0        2.190586    3.039509   -1.366045
     40          1           0       -0.910730    2.239910   -1.012011
     41          1           0        0.215583    1.499526   -2.149876
     42          1           0        1.017541    3.112178    0.359961
     43          1           0        2.928767    3.744747   -0.995342
     44          1           0        2.348791    2.647244   -2.367962
 ---------------------------------------------------------------------

 The electronic state is 1-A.
 Alpha  occ. eigenvalues --  -66.14305 -19.18950 -19.13549 -19.13190 -10.32024
 Alpha  occ. eigenvalues --  -10.26261 -10.25408 -10.20159 -10.20004 -10.19165
 Alpha  occ. eigenvalues --  -10.19061 -10.19020 -10.18001 -10.17984 -10.17749
 Alpha  occ. eigenvalues --  -10.16040 -10.15798 -10.15732  -5.28337  -3.64439
 Alpha  occ. eigenvalues --   -3.64138  -3.64127  -1.09652  -1.01424  -1.00542
 Alpha  occ. eigenvalues --   -0.82904  -0.80284  -0.77639  -0.74962  -0.71275
 Alpha  occ. eigenvalues --   -0.70019  -0.69462  -0.67628  -0.67443  -0.64549
 Alpha  occ. eigenvalues --   -0.60547  -0.60149  -0.56276  -0.53439  -0.51652
 Alpha  occ. eigenvalues --   -0.50394  -0.48186  -0.47188  -0.46133  -0.45200
 Alpha  occ. eigenvalues --   -0.44979  -0.43307  -0.42278  -0.42234  -0.41604
 Alpha  occ. eigenvalues --   -0.41028  -0.40489  -0.40299  -0.39651  -0.39281
 Alpha  occ. eigenvalues --   -0.38834  -0.38518  -0.37984  -0.37727  -0.37568
 Alpha  occ. eigenvalues --   -0.36640  -0.35770  -0.35161  -0.34967  -0.34358
 Alpha  occ. eigenvalues --   -0.33868  -0.32378  -0.31655  -0.30621  -0.29249
 Alpha  occ. eigenvalues --   -0.28604  -0.26564  -0.26433  -0.25553
 Alpha virt. eigenvalues --    0.00430   0.01449   0.06626   0.07605   0.08615
 Alpha virt. eigenvalues --    0.09236   0.09392   0.10722   0.11491   0.11924
 Alpha virt. eigenvalues --    0.11995   0.12699   0.13150   0.13996   0.14587

 Mulliken charges:
               1
     1  C    0.170518
     2  C   -0.090069
     3  C    0.318090
     4  C   -0.312608
     5  C    0.590673
     6  H    0.113919
     7  H    0.104651
     8  H    0.153396
     9  H    0.145748
    10  O   -0.485767
    11  O   -0.498890
    12  C   -0.190921
    13  C   -0.332346
    14  C   -0.340467
    15  O   -0.646240
    16  Si   0.906374
    17  C   -0.552924
    18  C   -0.553207
    19  C   -0.534049
    20  H    0.121308
    21  H    0.117404
    22  H    0.119565
    23  H    0.117369
    24  H    0.119612
    25  H    0.122729
    26  H    0.118801
    27  H    0.123250
    28  H    0.117608
    29  H    0.133527
    30  H    0.113487
    31  H    0.111299
    32  H    0.111298
    33  H    0.116076
    34  H    0.111263
    35  H    0.119471
    36  H    0.111844
    37  C   -0.226294
    38  C   -0.023727
    39  C   -0.255130
    40  H    0.111926
    41  H    0.114594
    42  H    0.099194
    43  H    0.104804
    44  H    0.102843
 Sum of Mulliken charges =   0.00000

 Dipole moment (field-independent basis, Debye):
    X=              1.5749    Y=             -2.9153    Z=             -3.2740  Tot=              4.6581
 Quadrupole moment (field-independent basis, Debye-Ang):
   XX=           -118.1910   YY=           -119.8003   ZZ=           -124.7750
   XY=              7.1699   XZ=             12.8244   YZ=             -7.4229

 Normal termination of Gaussian 09 at Wed Feb  6 15:03:45 2019.
