 Gaussian 09, Revision D.01,
 Gaussian 09:  ES64L-G09RevD.01 24-Apr-2013

 ---------------------------------------------------------------
 # b3lyp/6-31g(d,p) Opt=(maxcycles=25) scrf=(solvent=chloroform)
 ---------------------------------------------------------------

 -------------
 P_ng_3ginp001
 -------------
 Symbolic Z-matrix:
 Charge =  0 Multiplicity = 1

 SCF Done:  E(RB3LYP) =  -1064.41713071     A.U. after   13 cycles
 SCF Done:  E(RB3LYP) =  -1064.42300904     A.U. after   10 cycles
 SCF Done:  E(RB3LYP) =  -1064.42368257     A.U. after   10 cycles
 SCF Done:  E(RB3LYP) =  -1064.42371065     A.U. after   10 cycles
 SCF Done:  E(RB3LYP) =  -1064.42419838     A.U. after   10 cycles
 SCF Done:  E(RB3LYP) =  -1064.42431821     A.U. after    9 cycles
 SCF Done:  E(RB3LYP) =  -1064.42435611     A.U. after    9 cycles
 SCF Done:  E(RB3LYP) =  -1064.42437815     A.U. after    8 cycles
 SCF Done:  E(RB3LYP) =  -1064.42438770     A.U. after    8 cycles
 SCF Done:  E(RB3LYP) =  -1064.42439079     A.U. after    8 cycles
 SCF Done:  E(RB3LYP) =  -1064.42439127     A.U. after    7 cycles
 SCF Done:  E(RB3LYP) =  -1064.42439056     A.U. after    8 cycles
 SCF Done:  E(RB3LYP) =  -1064.42439144     A.U. after    7 cycles
 SCF Done:  E(RB3LYP) =  -1064.42439148     A.U. after    7 cycles
 SCF Done:  E(RB3LYP) =  -1064.42439150     A.U. after    6 cycles
 SCF Done:  E(RB3LYP) =  -1064.42438965     A.U. after    8 cycles
 SCF Done:  E(RB3LYP) =  -1064.42439136     A.U. after    8 cycles
 SCF Done:  E(RB3LYP) =  -1064.42439109     A.U. after    7 cycles
 SCF Done:  E(RB3LYP) =  -1064.42439086     A.U. after    6 cycles
 SCF Done:  E(RB3LYP) =  -1064.42439090     A.U. after    5 cycles
 Optimization completed.
    -- Stationary point found.

                         Standard orientation:
 ---------------------------------------------------------------------
 Center     Atomic      Atomic             Coordinates (Angstroms)
 Number     Number       Type             X           Y           Z
 ---------------------------------------------------------------------
      1          6           0        2.358632    0.147913    0.302777
      2          6           0        0.982900    0.262237    0.974847
      3          6           0       -0.122638    0.124925   -0.107987
      4          6           0        0.035737   -1.254757   -0.767593
      5          6           0        1.454701   -1.645572   -1.151287
      6          1           0        2.480572    0.984034   -0.394744
      7          1           0        0.921374    1.285207    1.364304
      8          1           0       -0.303081   -2.026601   -0.068014
      9          1           0       -0.578261   -1.352796   -1.667022
     10          8           0        2.489209   -1.066959   -0.506250
     11          8           0        1.684384   -2.518212   -1.962619
     12          6           0        3.552414    0.150966    1.255745
     13          6           0        4.901468    0.240683    0.535687
     14          6           0        0.797291   -0.710754    2.150396
     15          8           0       -1.378728    0.249537    0.554479
     16         14           0       -2.968770   -0.198933    0.229603
     17          6           0       -3.536519    0.329340   -1.492225
     18          6           0       -3.214379   -2.061016    0.419807
     19          6           0       -3.957385    0.713681    1.543653
     20          1           0       -4.283541   -2.298660    0.368930
     21          1           0       -2.714826   -2.632945   -0.368447
     22          1           0       -2.842512   -2.419254    1.385647
     23          1           0       -3.839626    1.797996    1.447000
     24          1           0       -5.025031    0.482924    1.457071
     25          1           0       -3.634316    0.429751    2.550569
     26          1           0       -4.600973    0.095733   -1.613344
     27          1           0       -3.414889    1.406417   -1.647338
     28          1           0       -2.998266   -0.191282   -2.291392
     29          1           0       -0.232750   -0.673535    2.507826
     30          1           0        1.029339   -1.744852    1.875673
     31          1           0        1.452465   -0.439522    2.981919
     32          1           0        3.519341   -0.750614    1.876421
     33          1           0        3.432468    1.007100    1.931231
     34          1           0        5.725304    0.239106    1.255637
     35          1           0        5.040961   -0.605800   -0.141822
     36          1           0        4.974908    1.161012   -0.054531
     37          6           0       -0.028444    1.235832   -1.192821
     38          6           0       -0.075279    2.638566   -0.653478
     39          6           0        0.796305    3.602659   -0.955586
     40          1           0       -0.878282    1.077640   -1.868410
     41          1           0        0.870696    1.099930   -1.803983
     42          1           0       -0.899588    2.856921    0.023694
     43          1           0        0.701275    4.604831   -0.547819
     44          1           0        1.632264    3.429162   -1.629987
 ---------------------------------------------------------------------

 The electronic state is 1-A.
 Alpha  occ. eigenvalues --  -66.14440 -19.18839 -19.13809 -19.13097 -10.31965
 Alpha  occ. eigenvalues --  -10.26146 -10.25068 -10.20103 -10.19718 -10.19255
 Alpha  occ. eigenvalues --  -10.19223 -10.18844 -10.18206 -10.17589 -10.17455
 Alpha  occ. eigenvalues --  -10.16186 -10.16014 -10.15901  -5.28483  -3.64580
 Alpha  occ. eigenvalues --   -3.64286  -3.64274  -1.09522  -1.01340  -1.00592
 Alpha  occ. eigenvalues --   -0.82865  -0.80032  -0.77940  -0.74680  -0.71336
 Alpha  occ. eigenvalues --   -0.70478  -0.68745  -0.67743  -0.67626  -0.64131
 Alpha  occ. eigenvalues --   -0.61251  -0.59881  -0.56389  -0.52315  -0.50782
 Alpha  occ. eigenvalues --   -0.50527  -0.48976  -0.48215  -0.45664  -0.45007
 Alpha  occ. eigenvalues --   -0.44353  -0.43086  -0.42762  -0.42309  -0.41917
 Alpha  occ. eigenvalues --   -0.40810  -0.40691  -0.40605  -0.39697  -0.39087
 Alpha  occ. eigenvalues --   -0.38876  -0.38457  -0.37952  -0.37715  -0.36789
 Alpha  occ. eigenvalues --   -0.36488  -0.36093  -0.35237  -0.34917  -0.34746
 Alpha  occ. eigenvalues --   -0.33900  -0.32450  -0.31475  -0.30411  -0.29077
 Alpha  occ. eigenvalues --   -0.28440  -0.27622  -0.26299  -0.25423
 Alpha virt. eigenvalues --    0.00551   0.01304   0.06198   0.07597   0.08694
 Alpha virt. eigenvalues --    0.09195   0.09601   0.10661   0.11503   0.11711
 Alpha virt. eigenvalues --    0.12465   0.12540   0.13257   0.13891   0.14068

 Mulliken charges:
               1
     1  C    0.168034
     2  C   -0.095535
     3  C    0.312826
     4  C   -0.310926
     5  C    0.593118
     6  H    0.114549
     7  H    0.111536
     8  H    0.162873
     9  H    0.142033
    10  O   -0.484628
    11  O   -0.498796
    12  C   -0.192098
    13  C   -0.330859
    14  C   -0.338178
    15  O   -0.653821
    16  Si   0.916930
    17  C   -0.554456
    18  C   -0.552375
    19  C   -0.535027
    20  H    0.120915
    21  H    0.119705
    22  H    0.120641
    23  H    0.120963
    24  H    0.118669
    25  H    0.121889
    26  H    0.122066
    27  H    0.122314
    28  H    0.119961
    29  H    0.131159
    30  H    0.108290
    31  H    0.112764
    32  H    0.115885
    33  H    0.109947
    34  H    0.107305
    35  H    0.124726
    36  H    0.106393
    37  C   -0.228144
    38  C   -0.027768
    39  C   -0.265314
    40  H    0.120893
    41  H    0.105478
    42  H    0.106865
    43  H    0.106674
    44  H    0.102526
 Sum of Mulliken charges =   0.00000

 Dipole moment (field-independent basis, Debye):
    X=             -2.4161    Y=              3.1471    Z=              2.4246  Tot=              4.6498
 Quadrupole moment (field-independent basis, Debye-Ang):
   XX=           -114.6658   YY=           -125.4794   ZZ=           -122.2296
   XY=             10.8446   XZ=              8.2929   YZ=             -8.2067

 Normal termination of Gaussian 09 at Wed Feb  6 11:39:05 2019.
