 Gaussian 09, Revision D.01,
 Gaussian 09:  ES64L-G09RevD.01 24-Apr-2013

 ---------------------------------------------------------------
 # b3lyp/6-31g(d,p) Opt=(maxcycles=25) scrf=(solvent=chloroform)
 ---------------------------------------------------------------

 -------------
 P_ng_3ginp005
 -------------
 Symbolic Z-matrix:
 Charge =  0 Multiplicity = 1

 SCF Done:  E(RB3LYP) =  -1064.41463424     A.U. after   13 cycles
 SCF Done:  E(RB3LYP) =  -1064.42064394     A.U. after   11 cycles
 SCF Done:  E(RB3LYP) =  -1064.42148917     A.U. after   11 cycles
 SCF Done:  E(RB3LYP) =  -1064.42157795     A.U. after   10 cycles
 SCF Done:  E(RB3LYP) =  -1064.42187948     A.U. after    9 cycles
 SCF Done:  E(RB3LYP) =  -1064.42191923     A.U. after    9 cycles
 SCF Done:  E(RB3LYP) =  -1064.42194779     A.U. after    9 cycles
 SCF Done:  E(RB3LYP) =  -1064.42196136     A.U. after    8 cycles
 SCF Done:  E(RB3LYP) =  -1064.42196694     A.U. after    8 cycles
 SCF Done:  E(RB3LYP) =  -1064.42197303     A.U. after    8 cycles
 SCF Done:  E(RB3LYP) =  -1064.42197815     A.U. after    8 cycles
 SCF Done:  E(RB3LYP) =  -1064.42198128     A.U. after    8 cycles
 SCF Done:  E(RB3LYP) =  -1064.42198229     A.U. after    7 cycles
 SCF Done:  E(RB3LYP) =  -1064.42198256     A.U. after    6 cycles
 Optimization completed.
    -- Stationary point found.

                         Standard orientation:
 ---------------------------------------------------------------------
 Center     Atomic      Atomic             Coordinates (Angstroms)
 Number     Number       Type             X           Y           Z
 ---------------------------------------------------------------------
      1          6           0       -2.147592   -0.780463   -0.774269
      2          6           0       -1.077048    0.236720   -1.205897
      3          6           0       -0.007613    0.495631   -0.105344
      4          6           0       -0.641742    0.276236    1.301666
      5          6           0       -2.153019    0.353754    1.380145
      6          1           0       -2.934313   -0.777540   -1.536723
      7          1           0       -1.629296    1.179005   -1.307853
      8          1           0       -0.375304   -0.734701    1.624890
      9          1           0       -0.238779    0.963912    2.047220
     10          8           0       -2.850325   -0.258052    0.399824
     11          8           0       -2.752122    0.883851    2.293655
     12          6           0       -1.713689   -2.233986   -0.559382
     13          6           0       -2.875766   -3.154548   -0.171861
     14          6           0       -0.482960   -0.099589   -2.577968
     15          8           0        1.048424   -0.446468   -0.282156
     16         14           0        2.638611   -0.582653    0.256935
     17          6           0        3.797028    0.537031   -0.726672
     18          6           0        2.810166   -0.211186    2.100974
     19          6           0        3.064773   -2.383122   -0.082874
     20          1           0        2.567015    0.827317    2.348631
     21          1           0        2.171645   -0.860814    2.708678
     22          1           0        3.847288   -0.384478    2.411743
     23          1           0        4.102692   -2.598035    0.194751
     24          1           0        2.418076   -3.058864    0.486344
     25          1           0        2.946924   -2.622161   -1.144951
     26          1           0        4.839088    0.313052   -0.469484
     27          1           0        3.680431    0.376937   -1.803855
     28          1           0        3.628650    1.599197   -0.524313
     29          1           0        0.162474    0.708570   -2.933143
     30          1           0        0.114463   -1.012082   -2.547432
     31          1           0       -1.282755   -0.228615   -3.314816
     32          1           0       -0.916025   -2.293849    0.186111
     33          1           0       -1.270818   -2.580435   -1.500025
     34          1           0       -2.530925   -4.187144   -0.062673
     35          1           0       -3.328194   -2.846331    0.774639
     36          1           0       -3.661229   -3.143222   -0.935893
     37          6           0        0.547470    1.943703   -0.224122
     38          6           0       -0.461648    3.039979   -0.010796
     39          6           0       -0.739701    3.998681   -0.896319
     40          1           0        1.022533    2.059178   -1.203717
     41          1           0        1.339591    2.045412    0.530239
     42          1           0       -0.982019    3.044772    0.947030
     43          1           0       -1.466137    4.776996   -0.682660
     44          1           0       -0.245396    4.043383   -1.864080
 ---------------------------------------------------------------------

 The electronic state is 1-A.
 Alpha  occ. eigenvalues --  -66.14425 -19.18621 -19.13751 -19.13021 -10.31617
 Alpha  occ. eigenvalues --  -10.26412 -10.24853 -10.19879 -10.19633 -10.19491
 Alpha  occ. eigenvalues --  -10.19372 -10.18677 -10.18395 -10.17817 -10.17485
 Alpha  occ. eigenvalues --  -10.16220 -10.15984 -10.15913  -5.28471  -3.64569
 Alpha  occ. eigenvalues --   -3.64277  -3.64260  -1.09438  -1.01231  -1.00519
 Alpha  occ. eigenvalues --   -0.82625  -0.79996  -0.77165  -0.75362  -0.71178
 Alpha  occ. eigenvalues --   -0.70268  -0.69127  -0.67793  -0.67576  -0.63944
 Alpha  occ. eigenvalues --   -0.61640  -0.59719  -0.55834  -0.52263  -0.51789
 Alpha  occ. eigenvalues --   -0.49765  -0.48572  -0.47154  -0.46683  -0.44593
 Alpha  occ. eigenvalues --   -0.44138  -0.43452  -0.42427  -0.42171  -0.41366
 Alpha  occ. eigenvalues --   -0.41284  -0.40622  -0.40139  -0.39543  -0.39358
 Alpha  occ. eigenvalues --   -0.38911  -0.38566  -0.38323  -0.37936  -0.37524
 Alpha  occ. eigenvalues --   -0.36604  -0.36306  -0.35186  -0.34870  -0.34006
 Alpha  occ. eigenvalues --   -0.33397  -0.32795  -0.31580  -0.30507  -0.28827
 Alpha  occ. eigenvalues --   -0.28311  -0.27869  -0.26199  -0.25240
 Alpha virt. eigenvalues --   -0.00021   0.01868   0.06346   0.07408   0.09155
 Alpha virt. eigenvalues --    0.09311   0.09475   0.10118   0.10982   0.11793
 Alpha virt. eigenvalues --    0.12525   0.12865   0.13189   0.13708   0.14269

 Mulliken charges:
               1
     1  C    0.150669
     2  C   -0.096688
     3  C    0.331330
     4  C   -0.304087
     5  C    0.591584
     6  H    0.113587
     7  H    0.113785
     8  H    0.161355
     9  H    0.134977
    10  O   -0.478064
    11  O   -0.506540
    12  C   -0.189062
    13  C   -0.326064
    14  C   -0.323328
    15  O   -0.647220
    16  Si   0.909911
    17  C   -0.546533
    18  C   -0.558144
    19  C   -0.533223
    20  H    0.120252
    21  H    0.121057
    22  H    0.123442
    23  H    0.118600
    24  H    0.120005
    25  H    0.121621
    26  H    0.119526
    27  H    0.120316
    28  H    0.117748
    29  H    0.109220
    30  H    0.131410
    31  H    0.104799
    32  H    0.113122
    33  H    0.112766
    34  H    0.106628
    35  H    0.119934
    36  H    0.107525
    37  C   -0.244898
    38  C   -0.046760
    39  C   -0.254600
    40  H    0.116781
    41  H    0.120564
    42  H    0.107496
    43  H    0.111360
    44  H    0.103839
 Sum of Mulliken charges =   0.00000

 Dipole moment (field-independent basis, Debye):
    X=              4.3851    Y=             -1.0695    Z=             -3.0246  Tot=              5.4333
 Quadrupole moment (field-independent basis, Debye-Ang):
   XX=           -127.8329   YY=           -114.7773   ZZ=           -121.4334
   XY=              4.0720   XZ=             13.2195   YZ=             -4.0124

 Normal termination of Gaussian 09 at Wed Feb  6 11:10:27 2019.
