 Gaussian 09, Revision D.01,
 Gaussian 09:  ES64L-G09RevD.01 24-Apr-2013

 ---------------------------------------------------------------
 # b3lyp/6-31g(d,p) Opt=(maxcycles=25) scrf=(solvent=chloroform)
 ---------------------------------------------------------------

 -------------
 P_ng_3ginp008
 -------------
 Symbolic Z-matrix:
 Charge =  0 Multiplicity = 1

 SCF Done:  E(RB3LYP) =  -1064.41516609     A.U. after   13 cycles
 SCF Done:  E(RB3LYP) =  -1064.42030573     A.U. after   10 cycles
 SCF Done:  E(RB3LYP) =  -1064.42094216     A.U. after   10 cycles
 SCF Done:  E(RB3LYP) =  -1064.42098133     A.U. after   10 cycles
 SCF Done:  E(RB3LYP) =  -1064.42139161     A.U. after   10 cycles
 SCF Done:  E(RB3LYP) =  -1064.42151044     A.U. after    9 cycles
 SCF Done:  E(RB3LYP) =  -1064.42156274     A.U. after    9 cycles
 SCF Done:  E(RB3LYP) =  -1064.42157854     A.U. after    8 cycles
 SCF Done:  E(RB3LYP) =  -1064.42158890     A.U. after    8 cycles
 SCF Done:  E(RB3LYP) =  -1064.42159566     A.U. after    8 cycles
 SCF Done:  E(RB3LYP) =  -1064.42159716     A.U. after    7 cycles
 SCF Done:  E(RB3LYP) =  -1064.42159778     A.U. after    7 cycles
 SCF Done:  E(RB3LYP) =  -1064.42159827     A.U. after    7 cycles
 SCF Done:  E(RB3LYP) =  -1064.42159841     A.U. after    6 cycles
 SCF Done:  E(RB3LYP) =  -1064.42159859     A.U. after    6 cycles
 SCF Done:  E(RB3LYP) =  -1064.42159878     A.U. after    6 cycles
 SCF Done:  E(RB3LYP) =  -1064.42159889     A.U. after    6 cycles
 Optimization completed.
    -- Stationary point found.

                         Standard orientation:
 ---------------------------------------------------------------------
 Center     Atomic      Atomic             Coordinates (Angstroms)
 Number     Number       Type             X           Y           Z
 ---------------------------------------------------------------------
      1          6           0        2.536429    0.143332   -0.044119
      2          6           0        1.226891    0.349166    0.732484
      3          6           0        0.021600    0.026633   -0.198490
      4          6           0        0.154601   -1.446205   -0.624031
      5          6           0        1.538015   -1.875365   -1.086515
      6          1           0        2.576402    0.855249   -0.876824
      7          1           0        1.166515    1.414913    0.976289
      8          1           0       -0.084112   -2.088475    0.230461
      9          1           0       -0.545958   -1.708848   -1.421238
     10          8           0        2.616328   -1.185411   -0.655183
     11          8           0        1.712381   -2.864703   -1.766909
     12          6           0        3.830045    0.296182    0.756391
     13          6           0        4.045087    1.713124    1.298104
     14          6           0        1.183618   -0.435131    2.054819
     15          8           0       -1.160536    0.250101    0.559397
     16         14           0       -2.763214   -0.255568    0.487124
     17          6           0       -3.496161   -0.147012   -1.249441
     18          6           0       -2.941606   -2.025101    1.120968
     19          6           0       -3.653295    0.931804    1.641989
     20          1           0       -4.003368   -2.280205    1.219506
     21          1           0       -2.490874   -2.758734    0.444825
     22          1           0       -2.479509   -2.145306    2.106624
     23          1           0       -3.549931    1.966045    1.298358
     24          1           0       -4.722522    0.698523    1.695378
     25          1           0       -3.247248    0.873794    2.657302
     26          1           0       -4.554560   -0.431842   -1.215406
     27          1           0       -3.439955    0.870647   -1.648107
     28          1           0       -3.003422   -0.818985   -1.960221
     29          1           0        0.185498   -0.377209    2.490776
     30          1           0        1.442296   -1.490376    1.922462
     31          1           0        1.889531   -0.015431    2.776146
     32          1           0        4.654631    0.030237    0.086037
     33          1           0        3.846096   -0.433458    1.572475
     34          1           0        5.017872    1.786958    1.792440
     35          1           0        4.026372    2.455202    0.492104
     36          1           0        3.281921    1.995565    2.030162
     37          6           0       -0.019455    0.921518   -1.471943
     38          6           0       -0.095226    2.404399   -1.231412
     39          6           0       -1.060818    3.199403   -1.694787
     40          1           0       -0.882500    0.606559   -2.066674
     41          1           0        0.862886    0.698297   -2.087006
     42          1           0        0.718258    2.854057   -0.662925
     43          1           0       -1.054009    4.270052   -1.512811
     44          1           0       -1.889054    2.810335   -2.282405
 ---------------------------------------------------------------------

 The electronic state is 1-A.
 Alpha  occ. eigenvalues --  -66.14308 -19.18916 -19.13638 -19.13158 -10.32002
 Alpha  occ. eigenvalues --  -10.26239 -10.25313 -10.20103 -10.19951 -10.19389
 Alpha  occ. eigenvalues --  -10.19300 -10.18918 -10.18186 -10.18179 -10.17704
 Alpha  occ. eigenvalues --  -10.16111 -10.15904 -10.15756  -5.28353  -3.64450
 Alpha  occ. eigenvalues --   -3.64157  -3.64144  -1.09578  -1.01402  -1.00540
 Alpha  occ. eigenvalues --   -0.82963  -0.80186  -0.77973  -0.74662  -0.71311
 Alpha  occ. eigenvalues --   -0.70697  -0.69085  -0.67681  -0.67502  -0.64556
 Alpha  occ. eigenvalues --   -0.60909  -0.59735  -0.56310  -0.52477  -0.51077
 Alpha  occ. eigenvalues --   -0.50865  -0.49334  -0.48465  -0.45974  -0.45086
 Alpha  occ. eigenvalues --   -0.44297  -0.43527  -0.42870  -0.42254  -0.41478
 Alpha  occ. eigenvalues --   -0.40599  -0.40509  -0.40264  -0.40097  -0.38884
 Alpha  occ. eigenvalues --   -0.38831  -0.38483  -0.37941  -0.37834  -0.37413
 Alpha  occ. eigenvalues --   -0.36831  -0.36143  -0.35387  -0.35151  -0.34419
 Alpha  occ. eigenvalues --   -0.33926  -0.32383  -0.31539  -0.30421  -0.29201
 Alpha  occ. eigenvalues --   -0.28471  -0.27517  -0.26190  -0.25528
 Alpha virt. eigenvalues --    0.00247   0.01601   0.06255   0.07371   0.08098
 Alpha virt. eigenvalues --    0.09059   0.09424   0.09947   0.10720   0.11392
 Alpha virt. eigenvalues --    0.12164   0.13027   0.13524   0.13824   0.14654

 Mulliken charges:
               1
     1  C    0.172175
     2  C   -0.100137
     3  C    0.321464
     4  C   -0.308589
     5  C    0.591532
     6  H    0.113323
     7  H    0.114159
     8  H    0.163026
     9  H    0.142004
    10  O   -0.490299
    11  O   -0.497994
    12  C   -0.196146
    13  C   -0.336895
    14  C   -0.341354
    15  O   -0.647214
    16  Si   0.908877
    17  C   -0.557518
    18  C   -0.551945
    19  C   -0.533674
    20  H    0.119718
    21  H    0.118238
    22  H    0.119693
    23  H    0.123764
    24  H    0.117376
    25  H    0.121016
    26  H    0.121734
    27  H    0.122253
    28  H    0.119260
    29  H    0.133516
    30  H    0.110135
    31  H    0.113585
    32  H    0.115862
    33  H    0.114439
    34  H    0.116824
    35  H    0.112569
    36  H    0.116198
    37  C   -0.235896
    38  C   -0.012024
    39  C   -0.263284
    40  H    0.109764
    41  H    0.115883
    42  H    0.094766
    43  H    0.106259
    44  H    0.103559
 Sum of Mulliken charges =   0.00000

 Dipole moment (field-independent basis, Debye):
    X=             -1.7394    Y=              3.6342    Z=              2.1694  Tot=              4.5759
 Quadrupole moment (field-independent basis, Debye-Ang):
   XX=           -113.7100   YY=           -128.2204   ZZ=           -121.2456
   XY=             12.9369   XZ=              8.5353   YZ=             -8.8652

 Normal termination of Gaussian 09 at Wed Feb  6 11:17:46 2019.
