 Gaussian 09, Revision D.01,
 Gaussian 09:  EM64L-G09RevD.01 24-Apr-2013

 ---------------------------------------------------------------
 # b3lyp/6-31g(d,p) Opt=(maxcycles=50) scrf=(solvent=chloroform)
 ---------------------------------------------------------------

 --------------------
 P_ng_correct1ginp015
 --------------------
 Symbolic Z-matrix:
 Charge =  0 Multiplicity = 1

 SCF Done:  E(RB3LYP) =  -1064.42266244     A.U. after   13 cycles
 SCF Done:  E(RB3LYP) =  -1064.42266599     A.U. after    9 cycles
 SCF Done:  E(RB3LYP) =  -1064.42268465     A.U. after    9 cycles
 SCF Done:  E(RB3LYP) =  -1064.42268708     A.U. after    8 cycles
 SCF Done:  E(RB3LYP) =  -1064.42269109     A.U. after    8 cycles
 SCF Done:  E(RB3LYP) =  -1064.42269320     A.U. after    7 cycles
 SCF Done:  E(RB3LYP) =  -1064.42269216     A.U. after    8 cycles
 SCF Done:  E(RB3LYP) =  -1064.42269265     A.U. after    7 cycles
 SCF Done:  E(RB3LYP) =  -1064.42269276     A.U. after    7 cycles
 SCF Done:  E(RB3LYP) =  -1064.42269372     A.U. after    7 cycles
 SCF Done:  E(RB3LYP) =  -1064.42269418     A.U. after    6 cycles
 SCF Done:  E(RB3LYP) =  -1064.42269504     A.U. after    7 cycles
 SCF Done:  E(RB3LYP) =  -1064.42269569     A.U. after    7 cycles
 SCF Done:  E(RB3LYP) =  -1064.42269590     A.U. after    6 cycles
 Optimization completed.
    -- Stationary point found.

                         Standard orientation:
 ---------------------------------------------------------------------
 Center     Atomic      Atomic             Coordinates (Angstroms)
 Number     Number       Type             X           Y           Z
 ---------------------------------------------------------------------
      1          6           0       -2.537159    0.117069   -0.609440
      2          6           0       -1.161276   -0.527349   -0.832819
      3          6           0       -0.013502    0.388107   -0.315263
      4          6           0       -0.284156    0.611722    1.181381
      5          6           0       -1.681885    1.099987    1.513506
      6          1           0       -2.656342    0.941415   -1.323278
      7          1           0       -1.096913   -1.432542   -0.216234
      8          1           0       -0.173603   -0.345262    1.706143
      9          1           0        0.420414    1.307584    1.637881
     10          8           0       -2.699611    0.732604    0.709203
     11          8           0       -1.927366    1.748853    2.508986
     12          6           0       -3.741240   -0.819454   -0.770237
     13          6           0       -3.755510   -2.035035    0.161468
     14          6           0       -0.998077   -0.946608   -2.301156
     15          8           0        1.217394   -0.283624   -0.539125
     16         14           0        2.413389   -1.052500    0.354781
     17          6           0        1.751043   -2.593234    1.224999
     18          6           0        3.673659   -1.555200   -0.947857
     19          6           0        3.214090    0.100176    1.616090
     20          1           0        3.230518   -2.230972   -1.686769
     21          1           0        4.059806   -0.680799   -1.481602
     22          1           0        4.524509   -2.071539   -0.489475
     23          1           0        3.504996    1.046740    1.149973
     24          1           0        2.554776    0.327291    2.459811
     25          1           0        4.118750   -0.366329    2.023496
     26          1           0        1.042131   -2.359672    2.026330
     27          1           0        1.251382   -3.264713    0.518542
     28          1           0        2.579875   -3.148874    1.679676
     29          1           0       -1.659533   -1.781699   -2.546377
     30          1           0       -1.229719   -0.127288   -2.989883
     31          1           0        0.030146   -1.264975   -2.482859
     32          1           0       -3.787313   -1.140106   -1.816624
     33          1           0       -4.638340   -0.215268   -0.595626
     34          1           0       -4.696359   -2.582641    0.053503
     35          1           0       -2.943229   -2.734763   -0.058532
     36          1           0       -3.666391   -1.727729    1.207711
     37          6           0        0.060110    1.733274   -1.092002
     38          6           0        1.136824    2.678677   -0.631802
     39          6           0        2.190356    3.040629   -1.365692
     40          1           0       -0.910577    2.240664   -1.011077
     41          1           0        0.215474    1.500652   -2.149433
     42          1           0        1.018402    3.111798    0.361104
     43          1           0        2.928694    3.745655   -0.994897
     44          1           0        2.348003    2.649136   -2.367999
 ---------------------------------------------------------------------

 The electronic state is 1-A.
 Alpha  occ. eigenvalues --  -66.14305 -19.18951 -19.13550 -19.13190 -10.32024
 Alpha  occ. eigenvalues --  -10.26260 -10.25408 -10.20160 -10.20004 -10.19165
 Alpha  occ. eigenvalues --  -10.19061 -10.19020 -10.18001 -10.17984 -10.17749
 Alpha  occ. eigenvalues --  -10.16041 -10.15799 -10.15732  -5.28337  -3.64439
 Alpha  occ. eigenvalues --   -3.64138  -3.64127  -1.09653  -1.01424  -1.00541
 Alpha  occ. eigenvalues --   -0.82905  -0.80284  -0.77639  -0.74963  -0.71275
 Alpha  occ. eigenvalues --   -0.70019  -0.69463  -0.67629  -0.67443  -0.64549
 Alpha  occ. eigenvalues --   -0.60547  -0.60148  -0.56276  -0.53440  -0.51652
 Alpha  occ. eigenvalues --   -0.50394  -0.48186  -0.47188  -0.46134  -0.45199
 Alpha  occ. eigenvalues --   -0.44979  -0.43308  -0.42278  -0.42235  -0.41604
 Alpha  occ. eigenvalues --   -0.41028  -0.40490  -0.40299  -0.39652  -0.39281
 Alpha  occ. eigenvalues --   -0.38835  -0.38518  -0.37984  -0.37727  -0.37568
 Alpha  occ. eigenvalues --   -0.36640  -0.35770  -0.35161  -0.34967  -0.34358
 Alpha  occ. eigenvalues --   -0.33868  -0.32378  -0.31655  -0.30622  -0.29250
 Alpha  occ. eigenvalues --   -0.28605  -0.26564  -0.26433  -0.25553
 Alpha virt. eigenvalues --    0.00430   0.01450   0.06625   0.07605   0.08615
 Alpha virt. eigenvalues --    0.09236   0.09392   0.10723   0.11491   0.11924
 Alpha virt. eigenvalues --    0.11995   0.12699   0.13150   0.13995   0.14588

 Mulliken charges:
               1
     1  C    0.170509
     2  C   -0.090066
     3  C    0.318060
     4  C   -0.312616
     5  C    0.590668
     6  H    0.113917
     7  H    0.104649
     8  H    0.153399
     9  H    0.145759
    10  O   -0.485741
    11  O   -0.498890
    12  C   -0.190926
    13  C   -0.332345
    14  C   -0.340466
    15  O   -0.646247
    16  Si   0.906368
    17  C   -0.553241
    18  C   -0.534053
    19  C   -0.552913
    20  H    0.119604
    21  H    0.122731
    22  H    0.117372
    23  H    0.123253
    24  H    0.117613
    25  H    0.118806
    26  H    0.117418
    27  H    0.119573
    28  H    0.121325
    29  H    0.113488
    30  H    0.111299
    31  H    0.133531
    32  H    0.111300
    33  H    0.116077
    34  H    0.111844
    35  H    0.111264
    36  H    0.119470
    37  C   -0.226299
    38  C   -0.023684
    39  C   -0.255164
    40  H    0.111932
    41  H    0.114596
    42  H    0.099188
    43  H    0.104802
    44  H    0.102839
 Sum of Mulliken charges =   0.00000

 Dipole moment (field-independent basis, Debye):
    X=              1.5739    Y=             -2.9141    Z=             -3.2747  Tot=              4.6576
 Quadrupole moment (field-independent basis, Debye-Ang):
   XX=           -118.1943   YY=           -119.7916   ZZ=           -124.7816
   XY=              7.1615   XZ=             12.8303   YZ=             -7.4213

 Normal termination of Gaussian 09 at Wed Feb  6 14:52:49 2019.
