 Gaussian 09, Revision D.01,
 Gaussian 09:  ES64L-G09RevD.01 24-Apr-2013

 ---------------------------------------------------------------
 # b3lyp/6-31g(d,p) Opt=(maxcycles=25) scrf=(solvent=chloroform)
 ---------------------------------------------------------------

 --------------------
 P_ng_correct1ginp005
 --------------------
 Symbolic Z-matrix:
 Charge =  0 Multiplicity = 1

 SCF Done:  E(RB3LYP) =  -1064.41662336     A.U. after   13 cycles
 SCF Done:  E(RB3LYP) =  -1064.42318105     A.U. after   10 cycles
 SCF Done:  E(RB3LYP) =  -1064.42391804     A.U. after   10 cycles
 SCF Done:  E(RB3LYP) =  -1064.42387460     A.U. after   11 cycles
 SCF Done:  E(RB3LYP) =  -1064.42432095     A.U. after   10 cycles
 SCF Done:  E(RB3LYP) =  -1064.42437982     A.U. after    9 cycles
 SCF Done:  E(RB3LYP) =  -1064.42440536     A.U. after    9 cycles
 SCF Done:  E(RB3LYP) =  -1064.42441343     A.U. after    8 cycles
 SCF Done:  E(RB3LYP) =  -1064.42442185     A.U. after    8 cycles
 SCF Done:  E(RB3LYP) =  -1064.42442642     A.U. after    8 cycles
 SCF Done:  E(RB3LYP) =  -1064.42442853     A.U. after    7 cycles
 SCF Done:  E(RB3LYP) =  -1064.42442883     A.U. after    7 cycles
 SCF Done:  E(RB3LYP) =  -1064.42442941     A.U. after    7 cycles
 SCF Done:  E(RB3LYP) =  -1064.42442928     A.U. after    6 cycles
 SCF Done:  E(RB3LYP) =  -1064.42442939     A.U. after    6 cycles
 Optimization completed.
    -- Stationary point found.

                         Standard orientation:
 ---------------------------------------------------------------------
 Center     Atomic      Atomic             Coordinates (Angstroms)
 Number     Number       Type             X           Y           Z
 ---------------------------------------------------------------------
      1          6           0       -2.311951   -0.038101   -0.186586
      2          6           0       -1.029159    0.034611   -1.034588
      3          6           0        0.095183    0.796286   -0.252621
      4          6           0       -0.158452    0.658320    1.277022
      5          6           0       -0.887212   -0.598778    1.683039
      6          1           0       -2.605899    0.961617    0.164414
      7          1           0       -0.681831   -1.002417   -1.104863
      8          1           0        0.773059    0.733931    1.834544
      9          1           0       -0.787857    1.496950    1.599949
     10          8           0       -2.017771   -0.858471    0.989066
     11          8           0       -0.550852   -1.344734    2.580613
     12          6           0       -3.512420   -0.696658   -0.860626
     13          6           0       -4.735100   -0.816073    0.054905
     14          6           0       -1.247351    0.538330   -2.466583
     15          8           0        1.363762    0.269225   -0.635332
     16         14           0        2.307019   -1.079669   -0.268696
     17          6           0        3.733886   -0.946845   -1.486815
     18          6           0        2.949580   -1.020913    1.503645
     19          6           0        1.387071   -2.707327   -0.533536
     20          1           0        3.437345   -0.066154    1.727857
     21          1           0        2.148860   -1.180158    2.232555
     22          1           0        3.692494   -1.814129    1.649780
     23          1           0        0.559231   -2.842683    0.169741
     24          1           0        0.991812   -2.795343   -1.551090
     25          1           0        2.082478   -3.540921   -0.377514
     26          1           0        4.279747   -0.006374   -1.358815
     27          1           0        4.443934   -1.768657   -1.341755
     28          1           0        3.377299   -0.990374   -2.521138
     29          1           0       -1.867572   -0.160897   -3.032447
     30          1           0       -1.733597    1.518423   -2.498335
     31          1           0       -0.288339    0.618163   -2.985553
     32          1           0       -3.212391   -1.687538   -1.223664
     33          1           0       -3.774270   -0.100913   -1.741100
     34          1           0       -5.571907   -1.273921   -0.480754
     35          1           0       -4.514452   -1.430151    0.931328
     36          1           0       -5.062619    0.168812    0.406628
     37          6           0        0.147418    2.305201   -0.609699
     38          6           0        1.139029    3.092482    0.201383
     39          6           0        0.843617    4.169908    0.930336
     40          1           0       -0.852278    2.741691   -0.497426
     41          1           0        0.419712    2.377982   -1.668331
     42          1           0        2.168160    2.739640    0.159256
     43          1           0        1.605657    4.710447    1.484240
     44          1           0       -0.171001    4.557523    0.993801
 ---------------------------------------------------------------------

 The electronic state is 1-A.
 Alpha  occ. eigenvalues --  -66.14177 -19.18998 -19.13666 -19.13538 -10.31794
 Alpha  occ. eigenvalues --  -10.26501 -10.25413 -10.20075 -10.19951 -10.19108
 Alpha  occ. eigenvalues --  -10.19040 -10.18986 -10.18292 -10.18022 -10.17625
 Alpha  occ. eigenvalues --  -10.15808 -10.15712 -10.15503  -5.28217  -3.64321
 Alpha  occ. eigenvalues --   -3.64020  -3.64003  -1.09888  -1.01667  -1.00396
 Alpha  occ. eigenvalues --   -0.82782  -0.80300  -0.77520  -0.75098  -0.71248
 Alpha  occ. eigenvalues --   -0.69786  -0.69398  -0.67476  -0.67291  -0.64291
 Alpha  occ. eigenvalues --   -0.60711  -0.59421  -0.56316  -0.54568  -0.52302
 Alpha  occ. eigenvalues --   -0.49226  -0.48764  -0.46871  -0.46529  -0.44824
 Alpha  occ. eigenvalues --   -0.43888  -0.42950  -0.42617  -0.41836  -0.41511
 Alpha  occ. eigenvalues --   -0.41075  -0.40536  -0.40340  -0.40067  -0.39064
 Alpha  occ. eigenvalues --   -0.38731  -0.38512  -0.37804  -0.37584  -0.37498
 Alpha  occ. eigenvalues --   -0.36878  -0.36337  -0.35195  -0.34766  -0.34272
 Alpha  occ. eigenvalues --   -0.33883  -0.33510  -0.31500  -0.30596  -0.29297
 Alpha  occ. eigenvalues --   -0.28309  -0.26796  -0.26496  -0.25401
 Alpha virt. eigenvalues --    0.00413   0.01638   0.06838   0.07607   0.08803
 Alpha virt. eigenvalues --    0.08918   0.10022   0.10683   0.10877   0.12441
 Alpha virt. eigenvalues --    0.12645   0.13353   0.13502   0.13776   0.14082

 Mulliken charges:
               1
     1  C    0.163692
     2  C   -0.090872
     3  C    0.296995
     4  C   -0.298438
     5  C    0.606202
     6  H    0.106623
     7  H    0.120042
     8  H    0.146917
     9  H    0.150617
    10  O   -0.477113
    11  O   -0.507832
    12  C   -0.195578
    13  C   -0.329348
    14  C   -0.343916
    15  O   -0.632426
    16  Si   0.901198
    17  C   -0.531832
    18  C   -0.562543
    19  C   -0.559901
    20  H    0.116701
    21  H    0.134184
    22  H    0.118376
    23  H    0.127762
    24  H    0.117755
    25  H    0.121242
    26  H    0.120727
    27  H    0.117886
    28  H    0.120153
    29  H    0.115247
    30  H    0.115526
    31  H    0.126158
    32  H    0.112164
    33  H    0.114950
    34  H    0.108585
    35  H    0.126536
    36  H    0.105929
    37  C   -0.219475
    38  C   -0.035900
    39  C   -0.259994
    40  H    0.099486
    41  H    0.123225
    42  H    0.106141
    43  H    0.105595
    44  H    0.098552
 Sum of Mulliken charges =   0.00000

 Dipole moment (field-independent basis, Debye):
    X=             -1.0013    Y=              2.4741    Z=             -3.5745  Tot=              4.4610
 Quadrupole moment (field-independent basis, Debye-Ang):
   XX=           -110.8469   YY=           -119.0911   ZZ=           -126.3739
   XY=             -5.9400   XZ=              5.7924   YZ=              9.1039

 Normal termination of Gaussian 09 at Wed Feb  6 11:11:42 2019.
