 Gaussian 09, Revision D.01,
 Gaussian 09:  ES64L-G09RevD.01 24-Apr-2013

 ---------------------------------------------------------------
 # b3lyp/6-31g(d,p) Opt=(maxcycles=25) scrf=(solvent=chloroform)
 ---------------------------------------------------------------

 -------------
 P_ng_2ginp011
 -------------
 Symbolic Z-matrix:
 Charge =  0 Multiplicity = 1

 SCF Done:  E(RB3LYP) =  -1064.41517286     A.U. after   13 cycles
 SCF Done:  E(RB3LYP) =  -1064.42072073     A.U. after   11 cycles
 SCF Done:  E(RB3LYP) =  -1064.42136540     A.U. after   10 cycles
 SCF Done:  E(RB3LYP) =  -1064.42119976     A.U. after   10 cycles
 SCF Done:  E(RB3LYP) =  -1064.42163052     A.U. after   10 cycles
 SCF Done:  E(RB3LYP) =  -1064.42168216     A.U. after    9 cycles
 SCF Done:  E(RB3LYP) =  -1064.42172448     A.U. after    9 cycles
 SCF Done:  E(RB3LYP) =  -1064.42174602     A.U. after    8 cycles
 SCF Done:  E(RB3LYP) =  -1064.42175621     A.U. after    8 cycles
 SCF Done:  E(RB3LYP) =  -1064.42176068     A.U. after    8 cycles
 SCF Done:  E(RB3LYP) =  -1064.42176490     A.U. after    7 cycles
 SCF Done:  E(RB3LYP) =  -1064.42176550     A.U. after    7 cycles
 SCF Done:  E(RB3LYP) =  -1064.42176584     A.U. after    7 cycles
 SCF Done:  E(RB3LYP) =  -1064.42176600     A.U. after    6 cycles
 SCF Done:  E(RB3LYP) =  -1064.42176613     A.U. after    7 cycles
 SCF Done:  E(RB3LYP) =  -1064.42176615     A.U. after    7 cycles
 SCF Done:  E(RB3LYP) =  -1064.42176616     A.U. after    6 cycles
 SCF Done:  E(RB3LYP) =  -1064.42176615     A.U. after    5 cycles
 SCF Done:  E(RB3LYP) =  -1064.42176614     A.U. after    5 cycles
 SCF Done:  E(RB3LYP) =  -1064.42176613     A.U. after    5 cycles
 Optimization completed.
    -- Stationary point found.

                         Standard orientation:
 ---------------------------------------------------------------------
 Center     Atomic      Atomic             Coordinates (Angstroms)
 Number     Number       Type             X           Y           Z
 ---------------------------------------------------------------------
      1          6           0        2.466609    0.389133    0.070259
      2          6           0        1.134387    0.325612    0.825774
      3          6           0       -0.027469   -0.009618   -0.152890
      4          6           0        0.302328   -1.404578   -0.715548
      5          6           0        1.706941   -1.567333   -1.268155
      6          1           0        2.455579    1.265243   -0.589562
      7          1           0        1.168054   -0.531010    1.510789
      8          1           0        0.196623   -2.136814    0.093892
      9          1           0       -0.384955   -1.704914   -1.508616
     10          8           0        2.685496   -0.759199   -0.812758
     11          8           0        1.991106   -2.431663   -2.071566
     12          6           0        3.723701    0.472692    0.944050
     13          6           0        3.901699   -0.671680    1.946289
     14          6           0        0.924226    1.582510    1.682778
     15          8           0       -1.208606   -0.073557    0.640298
     16         14           0       -2.831104   -0.464920    0.413812
     17          6           0       -3.431593   -0.891094    2.144639
     18          6           0       -3.798854    1.012245   -0.250974
     19          6           0       -3.091850   -1.935902   -0.740355
     20          1           0       -3.692554    1.886968    0.399372
     21          1           0       -3.482062    1.301668   -1.258007
     22          1           0       -4.865911    0.764980   -0.300120
     23          1           0       -2.547793   -2.825319   -0.407214
     24          1           0       -4.158627   -2.189265   -0.758367
     25          1           0       -2.793856   -1.721303   -1.772017
     26          1           0       -4.504992   -1.111148    2.142073
     27          1           0       -2.909670   -1.768975    2.539452
     28          1           0       -3.262430   -0.060642    2.838005
     29          1           0       -0.091862    1.588760    2.081374
     30          1           0        1.615978    1.590805    2.529985
     31          1           0        1.074496    2.501479    1.111605
     32          1           0        3.713506    1.436946    1.463313
     33          1           0        4.582046    0.500096    0.263615
     34          1           0        4.866842   -0.583773    2.453844
     35          1           0        3.124907   -0.669591    2.717381
     36          1           0        3.877028   -1.642028    1.441520
     37          6           0       -0.209882    0.973049   -1.341945
     38          6           0       -0.509660    2.410814   -1.014411
     39          6           0        0.066276    3.455707   -1.611992
     40          1           0       -1.041118    0.568272   -1.937785
     41          1           0        0.667931    0.925107   -1.997108
     42          1           0       -1.278600    2.583572   -0.264751
     43          1           0       -0.213313    4.476314   -1.367804
     44          1           0        0.835082    3.329459   -2.371166
 ---------------------------------------------------------------------

 The electronic state is 1-A.
 Alpha  occ. eigenvalues --  -66.14487 -19.18825 -19.13885 -19.12970 -10.31833
 Alpha  occ. eigenvalues --  -10.26245 -10.25195 -10.19860 -10.19810 -10.19573
 Alpha  occ. eigenvalues --  -10.19319 -10.18865 -10.18117 -10.17618 -10.17509
 Alpha  occ. eigenvalues --  -10.16198 -10.16004 -10.15877  -5.28521  -3.64622
 Alpha  occ. eigenvalues --   -3.64326  -3.64310  -1.09492  -1.01242  -1.00629
 Alpha  occ. eigenvalues --   -0.82871  -0.80140  -0.77849  -0.74734  -0.71253
 Alpha  occ. eigenvalues --   -0.70260  -0.69308  -0.67777  -0.67601  -0.64508
 Alpha  occ. eigenvalues --   -0.60371  -0.60045  -0.56564  -0.53509  -0.50754
 Alpha  occ. eigenvalues --   -0.50236  -0.48808  -0.46942  -0.46170  -0.44848
 Alpha  occ. eigenvalues --   -0.44299  -0.43447  -0.42768  -0.42138  -0.41844
 Alpha  occ. eigenvalues --   -0.40866  -0.40533  -0.40408  -0.39662  -0.39114
 Alpha  occ. eigenvalues --   -0.38911  -0.38750  -0.38246  -0.37976  -0.37209
 Alpha  occ. eigenvalues --   -0.36161  -0.35950  -0.35578  -0.34749  -0.34604
 Alpha  occ. eigenvalues --   -0.33764  -0.32469  -0.31618  -0.30411  -0.29115
 Alpha  occ. eigenvalues --   -0.28290  -0.27800  -0.26112  -0.25270
 Alpha virt. eigenvalues --    0.00703   0.01240   0.06213   0.07350   0.08539
 Alpha virt. eigenvalues --    0.08987   0.09537   0.10152   0.11346   0.11733
 Alpha virt. eigenvalues --    0.12716   0.12899   0.13430   0.13860   0.14421

 Mulliken charges:
               1
     1  C    0.167225
     2  C   -0.090638
     3  C    0.305916
     4  C   -0.293347
     5  C    0.593550
     6  H    0.115268
     7  H    0.106456
     8  H    0.156368
     9  H    0.137446
    10  O   -0.487214
    11  O   -0.501539
    12  C   -0.190696
    13  C   -0.332518
    14  C   -0.341273
    15  O   -0.643166
    16  Si   0.900682
    17  C   -0.531553
    18  C   -0.549579
    19  C   -0.555697
    20  H    0.120839
    21  H    0.119760
    22  H    0.120527
    23  H    0.123322
    24  H    0.123213
    25  H    0.120449
    26  H    0.118283
    27  H    0.120892
    28  H    0.122005
    29  H    0.127947
    30  H    0.109661
    31  H    0.115384
    32  H    0.111593
    33  H    0.114578
    34  H    0.110718
    35  H    0.111715
    36  H    0.119592
    37  C   -0.237463
    38  C   -0.017405
    39  C   -0.267484
    40  H    0.123274
    41  H    0.109305
    42  H    0.104978
    43  H    0.106234
    44  H    0.102391
 Sum of Mulliken charges =   0.00000

 Dipole moment (field-independent basis, Debye):
    X=             -2.7022    Y=              3.0724    Z=              2.6297  Tot=              4.8638
 Quadrupole moment (field-independent basis, Debye-Ang):
   XX=           -116.6254   YY=           -123.4954   ZZ=           -123.6261
   XY=             11.0991   XZ=              9.4722   YZ=             -8.4755

 Normal termination of Gaussian 09 at Wed Feb  6 11:29:19 2019.
