 Gaussian 09, Revision D.01,
 Gaussian 09:  ES64L-G09RevD.01 24-Apr-2013

 ---------------------------------------------------------------
 # b3lyp/6-31g(d,p) Opt=(maxcycles=25) scrf=(solvent=chloroform)
 ---------------------------------------------------------------

 -------------
 P_ng_2ginp009
 -------------
 Symbolic Z-matrix:
 Charge =  0 Multiplicity = 1

 SCF Done:  E(RB3LYP) =  -1064.41654632     A.U. after   13 cycles
 SCF Done:  E(RB3LYP) =  -1064.42199892     A.U. after   10 cycles
 SCF Done:  E(RB3LYP) =  -1064.42287531     A.U. after   10 cycles
 SCF Done:  E(RB3LYP) =  -1064.42290812     A.U. after   10 cycles
 SCF Done:  E(RB3LYP) =  -1064.42325753     A.U. after   10 cycles
 SCF Done:  E(RB3LYP) =  -1064.42338849     A.U. after   10 cycles
 SCF Done:  E(RB3LYP) =  -1064.42346184     A.U. after   10 cycles
 SCF Done:  E(RB3LYP) =  -1064.42349079     A.U. after    9 cycles
 SCF Done:  E(RB3LYP) =  -1064.42351501     A.U. after    9 cycles
 SCF Done:  E(RB3LYP) =  -1064.42353546     A.U. after    9 cycles
 SCF Done:  E(RB3LYP) =  -1064.42354803     A.U. after    9 cycles
 SCF Done:  E(RB3LYP) =  -1064.42355305     A.U. after    8 cycles
 SCF Done:  E(RB3LYP) =  -1064.42355572     A.U. after    8 cycles
 SCF Done:  E(RB3LYP) =  -1064.42355714     A.U. after    7 cycles
 SCF Done:  E(RB3LYP) =  -1064.42355833     A.U. after    7 cycles
 SCF Done:  E(RB3LYP) =  -1064.42355916     A.U. after    7 cycles
 SCF Done:  E(RB3LYP) =  -1064.42355996     A.U. after    7 cycles
 SCF Done:  E(RB3LYP) =  -1064.42356055     A.U. after    7 cycles
 SCF Done:  E(RB3LYP) =  -1064.42356089     A.U. after    7 cycles
 SCF Done:  E(RB3LYP) =  -1064.42356098     A.U. after    6 cycles
 Optimization completed.
    -- Stationary point found.

                         Standard orientation:
 ---------------------------------------------------------------------
 Center     Atomic      Atomic             Coordinates (Angstroms)
 Number     Number       Type             X           Y           Z
 ---------------------------------------------------------------------
      1          6           0       -2.444667   -0.302925   -0.444286
      2          6           0       -1.005550   -0.791929   -0.684963
      3          6           0        0.043832    0.295685   -0.313330
      4          6           0       -0.195960    0.641169    1.164423
      5          6           0       -1.619736    1.046728    1.488545
      6          1           0       -2.736919    0.359511   -1.269308
      7          1           0       -0.810568   -1.626223    0.002847
      8          1           0        0.012487   -0.245067    1.776573
      9          1           0        0.459573    1.436539    1.520254
     10          8           0       -2.618541    0.512716    0.758852
     11          8           0       -1.898323    1.788988    2.407159
     12          6           0       -3.467266   -1.436129   -0.328119
     13          6           0       -4.915295   -0.951926   -0.208485
     14          6           0       -0.849445   -1.319212   -2.120073
     15          8           0        1.341938   -0.238066   -0.528578
     16         14           0        2.578202   -0.919928    0.381976
     17          6           0        3.323104    0.322325    1.590844
     18          6           0        2.004141   -2.460002    1.314268
     19          6           0        3.855109   -1.401520   -0.912188
     20          1           0        2.863600   -2.942206    1.794979
     21          1           0        1.277259   -2.237268    2.102503
     22          1           0        1.551935   -3.191651    0.636196
     23          1           0        4.735704   -1.854669   -0.443279
     24          1           0        3.443614   -2.126140   -1.622533
     25          1           0        4.190060   -0.527520   -1.480089
     26          1           0        4.245866   -0.082773    2.022559
     27          1           0        3.575002    1.257899    1.081172
     28          1           0        2.650369    0.560621    2.420771
     29          1           0        0.203008   -1.523015   -2.326381
     30          1           0       -1.407077   -2.247943   -2.263929
     31          1           0       -1.209400   -0.598665   -2.861791
     32          1           0       -3.199235   -2.050010    0.540950
     33          1           0       -3.368336   -2.077244   -1.210365
     34          1           0       -5.050249   -0.325314    0.676456
     35          1           0       -5.208744   -0.364743   -1.085873
     36          1           0       -5.599941   -1.801949   -0.132310
     37          6           0       -0.074379    1.552436   -1.221637
     38          6           0        0.858630    2.680669   -0.872337
     39          6           0        1.884944    3.076308   -1.626933
     40          1           0       -1.107595    1.921907   -1.180045
     41          1           0        0.113662    1.234650   -2.250980
     42          1           0        0.653142    3.217498    0.053501
     43          1           0        2.518053    3.909894   -1.337007
     44          1           0        2.124516    2.583683   -2.566371
 ---------------------------------------------------------------------

 The electronic state is 1-A.
 Alpha  occ. eigenvalues --  -66.14323 -19.18947 -19.13580 -19.13152 -10.32019
 Alpha  occ. eigenvalues --  -10.26254 -10.25452 -10.20132 -10.20120 -10.19097
 Alpha  occ. eigenvalues --  -10.19015 -10.19014 -10.18019 -10.17957 -10.17503
 Alpha  occ. eigenvalues --  -10.16116 -10.15829 -10.15761  -5.28361  -3.64462
 Alpha  occ. eigenvalues --   -3.64163  -3.64150  -1.09669  -1.01407  -1.00567
 Alpha  occ. eigenvalues --   -0.82891  -0.80336  -0.77644  -0.75091  -0.71321
 Alpha  occ. eigenvalues --   -0.69786  -0.69328  -0.67689  -0.67469  -0.64079
 Alpha  occ. eigenvalues --   -0.61589  -0.59543  -0.56292  -0.53880  -0.51528
 Alpha  occ. eigenvalues --   -0.50374  -0.47564  -0.47189  -0.45989  -0.45383
 Alpha  occ. eigenvalues --   -0.45042  -0.43511  -0.42728  -0.42130  -0.41311
 Alpha  occ. eigenvalues --   -0.40706  -0.40476  -0.40099  -0.39753  -0.39416
 Alpha  occ. eigenvalues --   -0.38918  -0.38509  -0.37999  -0.37739  -0.37210
 Alpha  occ. eigenvalues --   -0.36678  -0.36157  -0.35157  -0.34777  -0.34226
 Alpha  occ. eigenvalues --   -0.33969  -0.32353  -0.31685  -0.30702  -0.29177
 Alpha  occ. eigenvalues --   -0.28667  -0.26621  -0.26366  -0.25557
 Alpha virt. eigenvalues --    0.00542   0.01476   0.06655   0.07721   0.08935
 Alpha virt. eigenvalues --    0.09252   0.09612   0.10835   0.11245   0.11673
 Alpha virt. eigenvalues --    0.11995   0.12630   0.12970   0.13786   0.14361

 Mulliken charges:
               1
     1  C    0.179100
     2  C   -0.093546
     3  C    0.316296
     4  C   -0.311269
     5  C    0.590389
     6  H    0.113067
     7  H    0.102116
     8  H    0.151296
     9  H    0.146630
    10  O   -0.485431
    11  O   -0.499749
    12  C   -0.187333
    13  C   -0.328730
    14  C   -0.339342
    15  O   -0.644471
    16  Si   0.906115
    17  C   -0.550458
    18  C   -0.555001
    19  C   -0.534360
    20  H    0.121867
    21  H    0.117694
    22  H    0.120113
    23  H    0.117575
    24  H    0.119609
    25  H    0.123271
    26  H    0.118951
    27  H    0.123019
    28  H    0.117909
    29  H    0.133665
    30  H    0.112586
    31  H    0.112323
    32  H    0.108650
    33  H    0.111519
    34  H    0.125850
    35  H    0.107122
    36  H    0.107330
    37  C   -0.227609
    38  C   -0.027534
    39  C   -0.253474
    40  H    0.111759
    41  H    0.115447
    42  H    0.099832
    43  H    0.104492
    44  H    0.102713
 Sum of Mulliken charges =   0.00000

 Dipole moment (field-independent basis, Debye):
    X=              1.7596    Y=             -3.3927    Z=             -2.8954  Tot=              4.7948
 Quadrupole moment (field-independent basis, Debye-Ang):
   XX=           -118.8971   YY=           -119.5383   ZZ=           -124.1742
   XY=              7.7025   XZ=             11.8231   YZ=             -6.9642

 Normal termination of Gaussian 09 at Wed Feb  6 11:33:56 2019.
