 Gaussian 09, Revision D.01,
 Gaussian 09:  ES64L-G09RevD.01 24-Apr-2013

 ---------------------------------------------------------------
 # b3lyp/6-31g(d,p) Opt=(maxcycles=25) scrf=(solvent=chloroform)
 ---------------------------------------------------------------

 --------------------
 P_ng_correct1ginp001
 --------------------
 Symbolic Z-matrix:
 Charge =  0 Multiplicity = 1

 SCF Done:  E(RB3LYP) =  -1064.41807588     A.U. after   13 cycles
 SCF Done:  E(RB3LYP) =  -1064.42357505     A.U. after   10 cycles
 SCF Done:  E(RB3LYP) =  -1064.42443749     A.U. after   10 cycles
 SCF Done:  E(RB3LYP) =  -1064.42447283     A.U. after   10 cycles
 SCF Done:  E(RB3LYP) =  -1064.42488869     A.U. after   10 cycles
 SCF Done:  E(RB3LYP) =  -1064.42500754     A.U. after    9 cycles
 SCF Done:  E(RB3LYP) =  -1064.42503722     A.U. after    9 cycles
 SCF Done:  E(RB3LYP) =  -1064.42505187     A.U. after    8 cycles
 SCF Done:  E(RB3LYP) =  -1064.42506584     A.U. after    8 cycles
 SCF Done:  E(RB3LYP) =  -1064.42507340     A.U. after    8 cycles
 SCF Done:  E(RB3LYP) =  -1064.42507882     A.U. after    8 cycles
 SCF Done:  E(RB3LYP) =  -1064.42508123     A.U. after    8 cycles
 SCF Done:  E(RB3LYP) =  -1064.42508192     A.U. after    7 cycles
 SCF Done:  E(RB3LYP) =  -1064.42508199     A.U. after    6 cycles
 SCF Done:  E(RB3LYP) =  -1064.42508199     A.U. after    6 cycles
 SCF Done:  E(RB3LYP) =  -1064.42508200     A.U. after    6 cycles
 Optimization completed.
    -- Stationary point found.

                         Standard orientation:
 ---------------------------------------------------------------------
 Center     Atomic      Atomic             Coordinates (Angstroms)
 Number     Number       Type             X           Y           Z
 ---------------------------------------------------------------------
      1          6           0       -2.314229   -0.552391   -0.368994
      2          6           0       -0.841133   -0.935201   -0.590736
      3          6           0        0.097984    0.289727   -0.398498
      4          6           0       -0.130569    0.811133    1.027083
      5          6           0       -1.581442    1.071482    1.381133
      6          1           0       -2.675157   -0.000005   -1.246288
      7          1           0       -0.558583   -1.648957    0.194945
      8          1           0        0.223404    0.065954    1.749799
      9          1           0        0.420056    1.734657    1.213559
     10          8           0       -2.536968    0.351194    0.759416
     11          8           0       -1.913943    1.860495    2.240751
     12          6           0       -3.234096   -1.751562   -0.126073
     13          6           0       -4.714114   -1.378086    0.000678
     14          6           0       -0.660535   -1.630927   -1.948965
     15          8           0        1.449513   -0.115147   -0.597035
     16         14           0        2.676704   -0.786802    0.338620
     17          6           0        3.379208    0.479940    1.547302
     18          6           0        2.110236   -2.325682    1.276453
     19          6           0        3.984035   -1.258649   -0.928748
     20          1           0        1.348375   -2.111923    2.033411
     21          1           0        1.707039   -3.083946    0.596891
     22          1           0        2.966026   -2.771445    1.797201
     23          1           0        3.598043   -1.998117   -1.638082
     24          1           0        4.314198   -0.385576   -1.501145
     25          1           0        4.864371   -1.690438   -0.439742
     26          1           0        3.676402    1.396296    1.026382
     27          1           0        2.667159    0.756276    2.331137
     28          1           0        4.270560    0.074680    2.040513
     29          1           0       -1.108701   -2.627453   -1.946660
     30          1           0       -1.120897   -1.062709   -2.763835
     31          1           0        0.402736   -1.740967   -2.170936
     32          1           0       -2.893830   -2.267278    0.780702
     33          1           0       -3.105418   -2.453711   -0.956420
     34          1           0       -5.323750   -2.272089    0.162543
     35          1           0       -4.879111   -0.696462    0.838550
     36          1           0       -5.076323   -0.887496   -0.909777
     37          6           0       -0.171867    1.407478   -1.442436
     38          6           0        0.739194    2.597793   -1.313171
     39          6           0        0.330583    3.849826   -1.100507
     40          1           0       -1.214187    1.737943   -1.372266
     41          1           0       -0.038336    0.963146   -2.436014
     42          1           0        1.802726    2.390631   -1.414586
     43          1           0        1.034022    4.674390   -1.029305
     44          1           0       -0.723032    4.098199   -0.993443
 ---------------------------------------------------------------------

 The electronic state is 1-A.
 Alpha  occ. eigenvalues --  -66.14450 -19.18854 -19.13777 -19.13007 -10.31889
 Alpha  occ. eigenvalues --  -10.26159 -10.25416 -10.20137 -10.19884 -10.18991
 Alpha  occ. eigenvalues --  -10.18990 -10.18905 -10.18078 -10.17877 -10.17484
 Alpha  occ. eigenvalues --  -10.16273 -10.15952 -10.15912  -5.28495  -3.64594
 Alpha  occ. eigenvalues --   -3.64300  -3.64283  -1.09554  -1.01294  -1.00600
 Alpha  occ. eigenvalues --   -0.82886  -0.80315  -0.77534  -0.75003  -0.71443
 Alpha  occ. eigenvalues --   -0.69784  -0.69327  -0.67842  -0.67600  -0.63984
 Alpha  occ. eigenvalues --   -0.61497  -0.59457  -0.56242  -0.54008  -0.51380
 Alpha  occ. eigenvalues --   -0.49859  -0.47825  -0.47051  -0.46718  -0.45459
 Alpha  occ. eigenvalues --   -0.44214  -0.43007  -0.42913  -0.42259  -0.41570
 Alpha  occ. eigenvalues --   -0.40800  -0.40526  -0.40223  -0.39529  -0.39481
 Alpha  occ. eigenvalues --   -0.39000  -0.38720  -0.37959  -0.37690  -0.36829
 Alpha  occ. eigenvalues --   -0.36673  -0.36080  -0.35383  -0.34790  -0.34430
 Alpha  occ. eigenvalues --   -0.34032  -0.32365  -0.31750  -0.30809  -0.29084
 Alpha  occ. eigenvalues --   -0.28777  -0.26876  -0.26237  -0.25425
 Alpha virt. eigenvalues --    0.00617   0.01734   0.06437   0.07535   0.08733
 Alpha virt. eigenvalues --    0.09208   0.09745   0.10873   0.11180   0.11704
 Alpha virt. eigenvalues --    0.12178   0.12495   0.13255   0.13580   0.14302

 Mulliken charges:
               1
     1  C    0.179321
     2  C   -0.096910
     3  C    0.309967
     4  C   -0.298878
     5  C    0.589415
     6  H    0.112795
     7  H    0.101767
     8  H    0.149329
     9  H    0.148301
    10  O   -0.486362
    11  O   -0.499713
    12  C   -0.187927
    13  C   -0.328539
    14  C   -0.339782
    15  O   -0.653846
    16  Si   0.917056
    17  C   -0.549228
    18  C   -0.557403
    19  C   -0.535120
    20  H    0.118620
    21  H    0.121316
    22  H    0.122927
    23  H    0.120560
    24  H    0.122400
    25  H    0.118696
    26  H    0.121761
    27  H    0.119525
    28  H    0.119711
    29  H    0.113493
    30  H    0.112419
    31  H    0.132815
    32  H    0.108142
    33  H    0.111506
    34  H    0.107035
    35  H    0.126053
    36  H    0.106865
    37  C   -0.228563
    38  C   -0.033552
    39  C   -0.258442
    40  H    0.106468
    41  H    0.121486
    42  H    0.105826
    43  H    0.104885
    44  H    0.103803
 Sum of Mulliken charges =   0.00000

 Dipole moment (field-independent basis, Debye):
    X=              2.2234    Y=             -3.8537    Z=             -2.7464  Tot=              5.2286
 Quadrupole moment (field-independent basis, Debye-Ang):
   XX=           -118.2042   YY=           -119.1998   ZZ=           -124.7995
   XY=              7.1746   XZ=             11.8359   YZ=             -6.8093

 Normal termination of Gaussian 09 at Wed Feb  6 11:14:30 2019.
