 Gaussian 09, Revision D.01,
 Gaussian 09:  EM64L-G09RevD.01 24-Apr-2013

 ---------------------------------------------------------------
 # b3lyp/6-31g(d,p) Opt=(maxcycles=50) scrf=(solvent=chloroform)
 ---------------------------------------------------------------

 ------------
 AT3_1ginp015
 ------------
 Symbolic Z-matrix:
 Charge =  0 Multiplicity = 1

 SCF Done:  E(RB3LYP) =  -836.494914500     A.U. after   12 cycles
 SCF Done:  E(RB3LYP) =  -836.498519237     A.U. after   10 cycles
 SCF Done:  E(RB3LYP) =  -836.496626036     A.U. after   11 cycles
 SCF Done:  E(RB3LYP) =  -836.498997639     A.U. after    8 cycles
 SCF Done:  E(RB3LYP) =  -836.499381672     A.U. after    9 cycles
 SCF Done:  E(RB3LYP) =  -836.499544160     A.U. after    9 cycles
 SCF Done:  E(RB3LYP) =  -836.499600270     A.U. after    9 cycles
 SCF Done:  E(RB3LYP) =  -836.499598697     A.U. after    9 cycles
 SCF Done:  E(RB3LYP) =  -836.499662315     A.U. after    9 cycles
 SCF Done:  E(RB3LYP) =  -836.499666171     A.U. after    8 cycles
 SCF Done:  E(RB3LYP) =  -836.499673058     A.U. after    8 cycles
 SCF Done:  E(RB3LYP) =  -836.499674701     A.U. after    7 cycles
 SCF Done:  E(RB3LYP) =  -836.499675413     A.U. after    7 cycles
 SCF Done:  E(RB3LYP) =  -836.499675376     A.U. after    6 cycles
 Optimization completed.
    -- Stationary point found.

                         Standard orientation:
 ---------------------------------------------------------------------
 Center     Atomic      Atomic             Coordinates (Angstroms)
 Number     Number       Type             X           Y           Z
 ---------------------------------------------------------------------
      1          6           0       -1.926743   -1.869548    2.435345
      2          6           0       -1.491145   -1.766554    0.970607
      3          6           0       -1.307425   -0.331254    0.437351
      4          6           0       -2.580480    0.553162    0.550792
      5          6           0       -3.734249    0.050451   -0.339022
      6          8           0       -3.459582    0.177389   -1.728353
      7          7           0       -0.833590   -0.417414   -0.974975
      8          6           0        0.259287    0.495120   -1.357448
      9          6           0        3.996561   -0.083566    0.788300
     10          6           0        3.556976   -1.047345   -0.122462
     11          6           0        2.357004   -0.824566   -0.782334
     12          6           0        1.560531    0.307698   -0.595345
     13          6           0        2.048707    1.229808    0.331280
     14          6           0        3.243048    1.066014    1.024933
     15          1           0        4.931360   -0.232059    1.318403
     16          1           0        4.122632   -1.949848   -0.322690
     17          1           0        3.561344    1.825921    1.729148
     18          9           0        1.912948   -1.756573   -1.664087
     19          9           0        1.317973    2.347327    0.567220
     20          1           0       -2.946007   -1.504400    2.591877
     21          1           0       -1.898795   -2.911576    2.768621
     22          1           0       -1.261207   -1.293866    3.088443
     23          1           0       -0.527820   -2.280717    0.854589
     24          1           0       -2.202710   -2.306769    0.332746
     25          1           0       -2.921368    0.470503    1.591147
     26          1           0       -4.634539    0.642229   -0.130004
     27          1           0       -3.978286   -0.993115   -0.078267
     28          1           0       -2.519804   -0.097076   -1.810851
     29          1           0        0.449768    0.339596   -2.423752
     30          1           0       -0.075384    1.524362   -1.236105
     31          1           0       -0.529313    0.140301    1.058443
     32          6           0       -2.299528    2.040010    0.279291
     33          1           0       -2.151007    2.220490   -0.788568
     34          1           0       -3.150990    2.652591    0.594972
     35          1           0       -1.412291    2.389188    0.817062
     36          1           0       -0.517344   -1.366333   -1.159491
 ---------------------------------------------------------------------

 The electronic state is 1-A.
 Alpha  occ. eigenvalues --  -24.71984 -24.71762 -19.11301 -14.33499 -10.28493
 Alpha  occ. eigenvalues --  -10.28470 -10.22475 -10.21526 -10.21437 -10.21169
 Alpha  occ. eigenvalues --  -10.21157 -10.20373 -10.20328 -10.18591 -10.18213
 Alpha  occ. eigenvalues --  -10.17691 -10.16676  -1.22878  -1.22679  -0.98910
 Alpha  occ. eigenvalues --   -0.91534  -0.87375  -0.80130  -0.77276  -0.75842
 Alpha  occ. eigenvalues --   -0.75550  -0.69654  -0.66397  -0.65015  -0.63111
 Alpha  occ. eigenvalues --   -0.61322  -0.60571  -0.56018  -0.55491  -0.52749
 Alpha  occ. eigenvalues --   -0.50204  -0.49501  -0.49141  -0.48196  -0.46968
 Alpha  occ. eigenvalues --   -0.46355  -0.45498  -0.44951  -0.44310  -0.43989
 Alpha  occ. eigenvalues --   -0.42823  -0.42243  -0.40626  -0.39778  -0.39036
 Alpha  occ. eigenvalues --   -0.38466  -0.37704  -0.36829  -0.36452  -0.36343
 Alpha  occ. eigenvalues --   -0.35802  -0.35389  -0.34383  -0.31895  -0.31594
 Alpha  occ. eigenvalues --   -0.30761  -0.26145  -0.25305  -0.24503  -0.23393
 Alpha virt. eigenvalues --   -0.02030  -0.00596   0.06829   0.08576   0.10075
 Alpha virt. eigenvalues --    0.10825   0.12048   0.13168   0.13303   0.13837
 Alpha virt. eigenvalues --    0.14175   0.14837   0.15808   0.16075   0.16327

 Mulliken charges:
               1
     1  C   -0.328219
     2  C   -0.209263
     3  C    0.086150
     4  C   -0.080217
     5  C    0.071311
     6  O   -0.596668
     7  N   -0.551067
     8  C   -0.108945
     9  C   -0.100793
    10  C   -0.136202
    11  C    0.317737
    12  C   -0.020531
    13  C    0.321494
    14  C   -0.137145
    15  H    0.119743
    16  H    0.119075
    17  H    0.118937
    18  F   -0.300923
    19  F   -0.299605
    20  H    0.114762
    21  H    0.108004
    22  H    0.109587
    23  H    0.101436
    24  H    0.109288
    25  H    0.090731
    26  H    0.087791
    27  H    0.071337
    28  H    0.326703
    29  H    0.131566
    30  H    0.132343
    31  H    0.085510
    32  C   -0.328663
    33  H    0.115317
    34  H    0.099098
    35  H    0.099557
    36  H    0.260763
 Sum of Mulliken charges =   0.00000

 Dipole moment (field-independent basis, Debye):
    X=              4.4914    Y=             -1.3876    Z=              2.9855  Tot=              5.5688
 Quadrupole moment (field-independent basis, Debye-Ang):
   XX=           -101.8758   YY=           -100.6563   ZZ=           -103.9419
   XY=              0.8935   XZ=             -6.7304   YZ=              0.1873

 Normal termination of Gaussian 09 at Wed Mar  6 13:01:10 2019.
