 Gaussian 09, Revision D.01,
 Gaussian 09:  EM64L-G09RevD.01 24-Apr-2013

 ---------------------------------------------------------------
 # b3lyp/6-31g(d,p) Opt=(maxcycles=50) scrf=(solvent=chloroform)
 ---------------------------------------------------------------

 ------------
 AT3_1ginp013
 ------------
 Symbolic Z-matrix:
 Charge =  0 Multiplicity = 1

 SCF Done:  E(RB3LYP) =  -836.488092986     A.U. after   12 cycles
 SCF Done:  E(RB3LYP) =  -836.491737010     A.U. after    9 cycles
 SCF Done:  E(RB3LYP) =  -836.492124801     A.U. after    9 cycles
 SCF Done:  E(RB3LYP) =  -836.492258099     A.U. after   10 cycles
 SCF Done:  E(RB3LYP) =  -836.492314795     A.U. after    9 cycles
 SCF Done:  E(RB3LYP) =  -836.492351034     A.U. after    9 cycles
 SCF Done:  E(RB3LYP) =  -836.492367844     A.U. after    8 cycles
 SCF Done:  E(RB3LYP) =  -836.492372659     A.U. after    9 cycles
 SCF Done:  E(RB3LYP) =  -836.492378619     A.U. after    8 cycles
 SCF Done:  E(RB3LYP) =  -836.492382534     A.U. after    8 cycles
 SCF Done:  E(RB3LYP) =  -836.492382954     A.U. after    7 cycles
 SCF Done:  E(RB3LYP) =  -836.492382971     A.U. after    7 cycles
 Optimization completed.
    -- Stationary point found.

                         Standard orientation:
 ---------------------------------------------------------------------
 Center     Atomic      Atomic             Coordinates (Angstroms)
 Number     Number       Type             X           Y           Z
 ---------------------------------------------------------------------
      1          6           0       -1.821152    2.862177    1.526936
      2          6           0       -2.426034    1.474183    1.295277
      3          6           0       -1.819978    0.734691    0.085744
      4          6           0       -2.604597   -0.547358   -0.328950
      5          6           0       -4.044012   -0.229528   -0.742588
      6          8           0       -4.551051   -1.347164   -1.474696
      7          7           0       -0.391309    0.509184    0.355053
      8          6           0        0.394153   -0.003422   -0.772250
      9          6           0        4.563425   -0.432270    0.352448
     10          6           0        4.190861    0.589272   -0.521255
     11          6           0        2.849485    0.712077   -0.867532
     12          6           0        1.850991   -0.139569   -0.393228
     13          6           0        2.285943   -1.139009    0.478840
     14          6           0        3.607553   -1.311586    0.865553
     15          1           0        5.604351   -0.543866    0.637111
     16          1           0        4.913949    1.284413   -0.931934
     17          1           0        3.868788   -2.111874    1.548090
     18          9           0        2.494874    1.703272   -1.717768
     19          9           0        1.345640   -1.983585    0.979639
     20          1           0       -2.255131    3.338031    2.412453
     21          1           0       -0.739382    2.794811    1.663770
     22          1           0       -2.008720    3.519546    0.669923
     23          1           0       -2.291411    0.860856    2.196497
     24          1           0       -3.508648    1.570698    1.155052
     25          1           0       -2.129112   -0.924879   -1.244415
     26          1           0       -4.061503    0.681513   -1.362842
     27          1           0       -4.667134   -0.036376    0.143345
     28          1           0       -5.489880   -1.189788   -1.639386
     29          1           0        0.047235   -0.979662   -1.147918
     30          1           0        0.306775    0.705581   -1.599963
     31          1           0       -1.862404    1.419653   -0.775178
     32          6           0       -2.558636   -1.672942    0.714553
     33          1           0       -3.012853   -1.365167    1.663234
     34          1           0       -3.111136   -2.541711    0.347668
     35          1           0       -1.531963   -1.993523    0.919372
     36          1           0       -0.296881   -0.132704    1.139192
 ---------------------------------------------------------------------

 The electronic state is 1-A.
 Alpha  occ. eigenvalues --  -24.71680 -24.71221 -19.14097 -14.31590 -10.28063
 Alpha  occ. eigenvalues --  -10.28060 -10.22541 -10.21739 -10.20904 -10.20892
 Alpha  occ. eigenvalues --  -10.20790 -10.20020 -10.19945 -10.18123 -10.17714
 Alpha  occ. eigenvalues --  -10.16809 -10.16606  -1.22492  -1.22263  -1.01087
 Alpha  occ. eigenvalues --   -0.90739  -0.87019  -0.79930  -0.76899  -0.75459
 Alpha  occ. eigenvalues --   -0.75163  -0.68587  -0.67469  -0.64359  -0.62731
 Alpha  occ. eigenvalues --   -0.61068  -0.59818  -0.55619  -0.54945  -0.52395
 Alpha  occ. eigenvalues --   -0.51009  -0.49646  -0.48793  -0.48266  -0.46425
 Alpha  occ. eigenvalues --   -0.46069  -0.45881  -0.45359  -0.43727  -0.43502
 Alpha  occ. eigenvalues --   -0.42683  -0.41034  -0.40476  -0.39833  -0.38922
 Alpha  occ. eigenvalues --   -0.38431  -0.37049  -0.36587  -0.36238  -0.35487
 Alpha  occ. eigenvalues --   -0.35415  -0.34558  -0.33322  -0.32561  -0.31695
 Alpha  occ. eigenvalues --   -0.30681  -0.26490  -0.25481  -0.24902  -0.21967
 Alpha virt. eigenvalues --   -0.01452  -0.00180   0.07139   0.08240   0.09373
 Alpha virt. eigenvalues --    0.10675   0.10925   0.12482   0.13567   0.14556
 Alpha virt. eigenvalues --    0.14656   0.14791   0.15696   0.16262   0.16464

 Mulliken charges:
               1
     1  C   -0.317683
     2  C   -0.185469
     3  C    0.076524
     4  C   -0.071875
     5  C    0.061103
     6  O   -0.570084
     7  N   -0.524170
     8  C   -0.077550
     9  C   -0.100766
    10  C   -0.139988
    11  C    0.314734
    12  C   -0.023065
    13  C    0.320710
    14  C   -0.138089
    15  H    0.116956
    16  H    0.116262
    17  H    0.116967
    18  F   -0.298946
    19  F   -0.302004
    20  H    0.095535
    21  H    0.117354
    22  H    0.098764
    23  H    0.094752
    24  H    0.095256
    25  H    0.097915
    26  H    0.081692
    27  H    0.086672
    28  H    0.319793
    29  H    0.104930
    30  H    0.118900
    31  H    0.086852
    32  C   -0.335474
    33  H    0.102247
    34  H    0.116783
    35  H    0.099428
    36  H    0.245033
 Sum of Mulliken charges =   0.00000

 Dipole moment (field-independent basis, Debye):
    X=             -0.0711    Y=              0.1039    Z=              0.5950  Tot=              0.6082
 Quadrupole moment (field-independent basis, Debye-Ang):
   XX=            -74.7704   YY=           -107.0251   ZZ=           -101.9123
   XY=             -6.3244   XZ=              2.9718   YZ=             -2.9416

 Normal termination of Gaussian 09 at Wed Mar  6 12:28:37 2019.
