 Gaussian 09, Revision D.01,
 Gaussian 09:  EM64L-G09RevD.01 24-Apr-2013

 ---------------------------------------------------------------
 # b3lyp/6-31g(d,p) Opt=(maxcycles=50) scrf=(solvent=chloroform)
 ---------------------------------------------------------------

 ------------
 AT3_1ginp017
 ------------
 Symbolic Z-matrix:
 Charge =  0 Multiplicity = 1

 SCF Done:  E(RB3LYP) =  -836.488616697     A.U. after   12 cycles
 SCF Done:  E(RB3LYP) =  -836.492649995     A.U. after   10 cycles
 SCF Done:  E(RB3LYP) =  -836.493087598     A.U. after   10 cycles
 SCF Done:  E(RB3LYP) =  -836.493189627     A.U. after   10 cycles
 SCF Done:  E(RB3LYP) =  -836.493284413     A.U. after    9 cycles
 SCF Done:  E(RB3LYP) =  -836.493303765     A.U. after    9 cycles
 SCF Done:  E(RB3LYP) =  -836.493311557     A.U. after    8 cycles
 SCF Done:  E(RB3LYP) =  -836.493314673     A.U. after    8 cycles
 SCF Done:  E(RB3LYP) =  -836.493317324     A.U. after    8 cycles
 SCF Done:  E(RB3LYP) =  -836.493319363     A.U. after    8 cycles
 SCF Done:  E(RB3LYP) =  -836.493320017     A.U. after    8 cycles
 SCF Done:  E(RB3LYP) =  -836.493320154     A.U. after    7 cycles
 SCF Done:  E(RB3LYP) =  -836.493320208     A.U. after    6 cycles
 SCF Done:  E(RB3LYP) =  -836.493320176     A.U. after    6 cycles
 Optimization completed.
    -- Stationary point found.

                         Standard orientation:
 ---------------------------------------------------------------------
 Center     Atomic      Atomic             Coordinates (Angstroms)
 Number     Number       Type             X           Y           Z
 ---------------------------------------------------------------------
      1          6           0        2.091735    2.744660    0.005563
      2          6           0        2.199455    1.702242    1.125209
      3          6           0        1.894464    0.243602    0.697910
      4          6           0        2.923343   -0.350953   -0.299405
      5          6           0        2.672116   -1.858384   -0.490764
      6          8           0        3.505352   -2.442592   -1.494986
      7          7           0        0.543390    0.051186    0.137628
      8          6           0       -0.562608    0.354942    1.052596
      9          6           0       -4.379099   -0.359140   -0.885122
     10          6           0       -3.601041    0.738718   -1.258570
     11          6           0       -2.387825    0.930350   -0.612519
     12          6           0       -1.895538    0.092977    0.390045
     13          6           0       -2.713406   -0.989831    0.715858
     14          6           0       -3.940343   -1.234347    0.108418
     15          1           0       -5.332423   -0.533259   -1.372800
     16          1           0       -3.916461    1.432831   -2.028820
     17          1           0       -4.526007   -2.093206    0.415144
     18          9           0       -1.617891    1.990736   -0.974964
     19          9           0       -2.294942   -1.840147    1.681480
     20          1           0        2.792105    2.544503   -0.812529
     21          1           0        1.082558    2.777755   -0.419623
     22          1           0        2.313507    3.745490    0.389051
     23          1           0        3.198296    1.740257    1.572752
     24          1           0        1.510241    1.976975    1.932691
     25          1           0        2.756321    0.129024   -1.277727
     26          1           0        1.611878   -2.030077   -0.704449
     27          1           0        2.916357   -2.389212    0.437709
     28          1           0        3.230489   -2.071850   -2.344663
     29          1           0       -0.467989   -0.291290    1.929300
     30          1           0       -0.561184    1.394511    1.417940
     31          1           0        1.937070   -0.369544    1.611482
     32          6           0        4.382955   -0.111052    0.109319
     33          1           0        4.561849   -0.447763    1.138019
     34          1           0        5.042581   -0.683165   -0.548058
     35          1           0        4.669825    0.941857    0.044668
     36          1           0        0.444688    0.630579   -0.693474
 ---------------------------------------------------------------------

 The electronic state is 1-A.
 Alpha  occ. eigenvalues --  -24.71807 -24.71316 -19.13828 -14.31784 -10.28180
 Alpha  occ. eigenvalues --  -10.28171 -10.21888 -10.21595 -10.21061 -10.21012
 Alpha  occ. eigenvalues --  -10.20890 -10.20126 -10.20040 -10.18326 -10.17674
 Alpha  occ. eigenvalues --  -10.17335 -10.16747  -1.22617  -1.22364  -1.00718
 Alpha  occ. eigenvalues --   -0.90881  -0.87129  -0.80041  -0.76877  -0.75565
 Alpha  occ. eigenvalues --   -0.75032  -0.69056  -0.66599  -0.65294  -0.62846
 Alpha  occ. eigenvalues --   -0.61534  -0.59384  -0.55916  -0.55442  -0.52478
 Alpha  occ. eigenvalues --   -0.49913  -0.48987  -0.48879  -0.48255  -0.47085
 Alpha  occ. eigenvalues --   -0.46454  -0.46014  -0.45450  -0.43879  -0.42897
 Alpha  occ. eigenvalues --   -0.42114  -0.41391  -0.40785  -0.39962  -0.39268
 Alpha  occ. eigenvalues --   -0.38685  -0.37227  -0.36428  -0.35910  -0.35734
 Alpha  occ. eigenvalues --   -0.35453  -0.34547  -0.33980  -0.33291  -0.31353
 Alpha  occ. eigenvalues --   -0.30670  -0.26324  -0.25609  -0.25007  -0.21939
 Alpha virt. eigenvalues --   -0.01574  -0.00286   0.06834   0.08152   0.09082
 Alpha virt. eigenvalues --    0.10334   0.11702   0.12614   0.14136   0.14540
 Alpha virt. eigenvalues --    0.14760   0.14975   0.15647   0.15956   0.16953

 Mulliken charges:
               1
     1  C   -0.335871
     2  C   -0.186823
     3  C    0.078171
     4  C   -0.082359
     5  C    0.061998
     6  O   -0.569189
     7  N   -0.526427
     8  C   -0.076026
     9  C   -0.100789
    10  C   -0.138068
    11  C    0.320388
    12  C   -0.023693
    13  C    0.315149
    14  C   -0.139646
    15  H    0.117539
    16  H    0.117212
    17  H    0.116964
    18  F   -0.302280
    19  F   -0.298455
    20  H    0.109453
    21  H    0.103955
    22  H    0.107118
    23  H    0.099406
    24  H    0.094685
    25  H    0.077846
    26  H    0.102554
    27  H    0.095669
    28  H    0.314714
    29  H    0.119572
    30  H    0.103461
    31  H    0.088689
    32  C   -0.326388
    33  H    0.101076
    34  H    0.111006
    35  H    0.104303
    36  H    0.245086
 Sum of Mulliken charges =   0.00000

 Dipole moment (field-independent basis, Debye):
    X=             -2.5161    Y=              2.2150    Z=             -0.7890  Tot=              3.4437
 Quadrupole moment (field-independent basis, Debye-Ang):
   XX=            -96.9850   YY=           -108.7324   ZZ=            -95.6796
   XY=              9.4207   XZ=              5.2938   YZ=             -0.5285

 Normal termination of Gaussian 09 at Wed Mar  6 11:18:06 2019.
