 Gaussian 09, Revision D.01,
 Gaussian 09:  EM64L-G09RevD.01 24-Apr-2013

 ---------------------------------------------------------------
 # b3lyp/6-31g(d,p) Opt=(maxcycles=50) scrf=(solvent=chloroform)
 ---------------------------------------------------------------

 ------------
 AT3_2ginp002
 ------------
 Symbolic Z-matrix:
 Charge =  0 Multiplicity = 1

 SCF Done:  E(RB3LYP) =  -836.496764804     A.U. after   12 cycles
 SCF Done:  E(RB3LYP) =  -836.499677485     A.U. after   10 cycles
 SCF Done:  E(RB3LYP) =  -836.497251654     A.U. after   11 cycles
 SCF Done:  E(RB3LYP) =  -836.500069261     A.U. after    8 cycles
 SCF Done:  E(RB3LYP) =  -836.500350275     A.U. after   10 cycles
 SCF Done:  E(RB3LYP) =  -836.499435061     A.U. after   10 cycles
 SCF Done:  E(RB3LYP) =  -836.500430049     A.U. after    7 cycles
 SCF Done:  E(RB3LYP) =  -836.500498860     A.U. after    9 cycles
 SCF Done:  E(RB3LYP) =  -836.500516946     A.U. after    9 cycles
 SCF Done:  E(RB3LYP) =  -836.500524440     A.U. after    8 cycles
 SCF Done:  E(RB3LYP) =  -836.500524985     A.U. after    7 cycles
 SCF Done:  E(RB3LYP) =  -836.500525418     A.U. after    6 cycles
 SCF Done:  E(RB3LYP) =  -836.500525439     A.U. after    6 cycles
 SCF Done:  E(RB3LYP) =  -836.500525420     A.U. after    5 cycles
 Optimization completed.
    -- Stationary point found.

                         Standard orientation:
 ---------------------------------------------------------------------
 Center     Atomic      Atomic             Coordinates (Angstroms)
 Number     Number       Type             X           Y           Z
 ---------------------------------------------------------------------
      1          6           0        2.417837    2.930629    0.167177
      2          6           0        2.812456    1.480444    0.478662
      3          6           0        2.076616    0.438167   -0.383476
      4          6           0        2.724816   -0.974114   -0.368249
      5          6           0        2.803339   -1.582729    1.043249
      6          8           0        1.531670   -1.777832    1.642687
      7          7           0        0.667206    0.346491    0.081400
      8          6           0       -0.289837   -0.037452   -0.971266
      9          6           0       -4.364267    0.016730    0.514586
     10          6           0       -3.647427    1.210280    0.404493
     11          6           0       -2.347307    1.149257   -0.075184
     12          6           0       -1.708545   -0.033264   -0.453894
     13          6           0       -2.473050   -1.193537   -0.318199
     14          6           0       -3.781543   -1.197607    0.152739
     15          1           0       -5.383291    0.034453    0.886268
     16          1           0       -4.075191    2.166934    0.680575
     17          1           0       -4.317575   -2.136333    0.229882
     18          9           0       -1.635151    2.302552   -0.180035
     19          9           0       -1.914290   -2.372569   -0.672468
     20          1           0        2.958459    3.627190    0.815130
     21          1           0        2.654287    3.186576   -0.871387
     22          1           0        1.348283    3.118280    0.315048
     23          1           0        3.891070    1.371980    0.328366
     24          1           0        2.624289    1.263255    1.537488
     25          1           0        2.063902   -1.629528   -0.952064
     26          1           0        3.451756   -0.952016    1.676970
     27          1           0        3.293778   -2.563169    0.980819
     28          1           0        0.986780   -1.021691    1.330267
     29          1           0       -0.219636    0.636024   -1.841280
     30          1           0       -0.047151   -1.042107   -1.320807
     31          1           0        2.101921    0.795699   -1.429465
     32          6           0        4.100258   -0.988375   -1.049924
     33          1           0        4.856066   -0.453678   -0.464618
     34          1           0        4.454723   -2.015949   -1.178530
     35          1           0        4.057914   -0.524265   -2.041151
     36          1           0        0.380702    1.255142    0.435449
 ---------------------------------------------------------------------

 The electronic state is 1-A.
 Alpha  occ. eigenvalues --  -24.72093 -24.71507 -19.11049 -14.33459 -10.28446
 Alpha  occ. eigenvalues --  -10.28424 -10.22552 -10.21671 -10.21413 -10.21361
 Alpha  occ. eigenvalues --  -10.21070 -10.20298 -10.20192 -10.18479 -10.18478
 Alpha  occ. eigenvalues --  -10.17860 -10.17504  -1.22927  -1.22579  -0.98752
 Alpha  occ. eigenvalues --   -0.91803  -0.87395  -0.80462  -0.77424  -0.75797
 Alpha  occ. eigenvalues --   -0.75756  -0.69327  -0.66182  -0.65302  -0.63084
 Alpha  occ. eigenvalues --   -0.61676  -0.60779  -0.55963  -0.55318  -0.53050
 Alpha  occ. eigenvalues --   -0.50283  -0.49134  -0.48991  -0.48415  -0.47575
 Alpha  occ. eigenvalues --   -0.46866  -0.46158  -0.44767  -0.44058  -0.43460
 Alpha  occ. eigenvalues --   -0.42269  -0.41159  -0.40722  -0.40496  -0.39403
 Alpha  occ. eigenvalues --   -0.38499  -0.38171  -0.37515  -0.37181  -0.35969
 Alpha  occ. eigenvalues --   -0.35727  -0.35355  -0.33899  -0.32754  -0.31488
 Alpha  occ. eigenvalues --   -0.30778  -0.25930  -0.25189  -0.24322  -0.23598
 Alpha virt. eigenvalues --   -0.01898  -0.00471   0.06822   0.08623   0.09422
 Alpha virt. eigenvalues --    0.10560   0.11810   0.12775   0.13464   0.14005
 Alpha virt. eigenvalues --    0.14458   0.15468   0.15713   0.16003   0.16149

 Mulliken charges:
               1
     1  C   -0.331826
     2  C   -0.207282
     3  C    0.095886
     4  C   -0.095165
     5  C    0.087476
     6  O   -0.607844
     7  N   -0.564518
     8  C   -0.082205
     9  C   -0.099305
    10  C   -0.136288
    11  C    0.321096
    12  C   -0.025603
    13  C    0.319085
    14  C   -0.137950
    15  H    0.119670
    16  H    0.119371
    17  H    0.119610
    18  F   -0.302791
    19  F   -0.295915
    20  H    0.111606
    21  H    0.111570
    22  H    0.105333
    23  H    0.109538
    24  H    0.111916
    25  H    0.095362
    26  H    0.069096
    27  H    0.084635
    28  H    0.328156
    29  H    0.113106
    30  H    0.131083
    31  H    0.076968
    32  C   -0.329297
    33  H    0.108839
    34  H    0.109151
    35  H    0.105281
    36  H    0.262155
 Sum of Mulliken charges =   0.00000

 Dipole moment (field-independent basis, Debye):
    X=             -1.3564    Y=              3.0500    Z=             -2.0208  Tot=              3.9021
 Quadrupole moment (field-independent basis, Debye-Ang):
   XX=            -82.8681   YY=           -105.5331   ZZ=           -105.4154
   XY=              2.9764   XZ=             -6.5589   YZ=              5.9473

 Normal termination of Gaussian 09 at Wed Mar  6 12:12:41 2019.
