 Gaussian 09, Revision D.01,
 Gaussian 09:  EM64L-G09RevD.01 24-Apr-2013

 ---------------------------------------------------------------
 # b3lyp/6-31g(d,p) Opt=(maxcycles=50) scrf=(solvent=chloroform)
 ---------------------------------------------------------------

 ------------
 AT3_1ginp010
 ------------
 Symbolic Z-matrix:
 Charge =  0 Multiplicity = 1

 SCF Done:  E(RB3LYP) =  -836.491377132     A.U. after   12 cycles
 SCF Done:  E(RB3LYP) =  -836.496081322     A.U. after   10 cycles
 SCF Done:  E(RB3LYP) =  -836.495897366     A.U. after   10 cycles
 SCF Done:  E(RB3LYP) =  -836.496646340     A.U. after    8 cycles
 SCF Done:  E(RB3LYP) =  -836.495795307     A.U. after   10 cycles
 SCF Done:  E(RB3LYP) =  -836.496941130     A.U. after    8 cycles
 SCF Done:  E(RB3LYP) =  -836.496535515     A.U. after   10 cycles
 SCF Done:  E(RB3LYP) =  -836.497156934     A.U. after   10 cycles
 SCF Done:  E(RB3LYP) =  -836.497201283     A.U. after    9 cycles
 SCF Done:  E(RB3LYP) =  -836.497213282     A.U. after    8 cycles
 SCF Done:  E(RB3LYP) =  -836.497217806     A.U. after    8 cycles
 SCF Done:  E(RB3LYP) =  -836.497218476     A.U. after    7 cycles
 SCF Done:  E(RB3LYP) =  -836.497218824     A.U. after    7 cycles
 SCF Done:  E(RB3LYP) =  -836.497218909     A.U. after    6 cycles
 SCF Done:  E(RB3LYP) =  -836.497218966     A.U. after    6 cycles
 Optimization completed.
    -- Stationary point found.

                         Standard orientation:
 ---------------------------------------------------------------------
 Center     Atomic      Atomic             Coordinates (Angstroms)
 Number     Number       Type             X           Y           Z
 ---------------------------------------------------------------------
      1          6           0        1.168763    2.467278    1.819922
      2          6           0        2.132373    1.644519    0.953943
      3          6           0        1.438244    0.572671    0.094463
      4          6           0        2.405595   -0.512397   -0.447568
      5          6           0        2.789736   -1.538947    0.629430
      6          8           0        1.669599   -2.168978    1.248601
      7          7           0        0.745265    1.232431   -1.031328
      8          6           0       -0.331361    0.464984   -1.669775
      9          6           0       -3.543473   -0.826743    0.969536
     10          6           0       -2.596740   -1.755968    0.537525
     11          6           0       -1.584116   -1.317878   -0.306438
     12          6           0       -1.453787   -0.004310   -0.754891
     13          6           0       -2.424978    0.878640   -0.276994
     14          6           0       -3.464662    0.507583    0.564403
     15          1           0       -4.345015   -1.142464    1.628798
     16          1           0       -2.631705   -2.795404    0.842386
     17          1           0       -4.185120    1.249638    0.888501
     18          9           0       -0.658206   -2.230951   -0.723351
     19          9           0       -2.332061    2.175015   -0.665744
     20          1           0        0.618949    1.823578    2.514984
     21          1           0        1.713681    3.210016    2.411174
     22          1           0        0.429078    3.012891    1.223069
     23          1           0        2.705527    2.312142    0.299306
     24          1           0        2.858747    1.155203    1.612404
     25          1           0        1.849328   -1.077375   -1.209028
     26          1           0        3.349362   -1.061624    1.442399
     27          1           0        3.459945   -2.288808    0.179262
     28          1           0        1.077981   -2.473652    0.545487
     29          1           0       -0.761142    1.100584   -2.449372
     30          1           0        0.092838   -0.406550   -2.172012
     31          1           0        0.721781    0.050396    0.748433
     32          6           0        3.652427    0.059648   -1.134469
     33          1           0        4.329972    0.537714   -0.418768
     34          1           0        4.215263   -0.729484   -1.644227
     35          1           0        3.362569    0.806848   -1.877767
     36          1           0        0.348579    2.110108   -0.707209
 ---------------------------------------------------------------------

 The electronic state is 1-A.
 Alpha  occ. eigenvalues --  -24.72413 -24.71673 -19.13749 -14.31848 -10.28419
 Alpha  occ. eigenvalues --  -10.28263 -10.22226 -10.21912 -10.21024 -10.20949
 Alpha  occ. eigenvalues --  -10.20348 -10.20293 -10.20249 -10.18190 -10.17807
 Alpha  occ. eigenvalues --  -10.17384 -10.16865  -1.23000  -1.22598  -1.00805
 Alpha  occ. eigenvalues --   -0.90707  -0.87217  -0.79819  -0.77143  -0.75774
 Alpha  occ. eigenvalues --   -0.75421  -0.68913  -0.66703  -0.65194  -0.63077
 Alpha  occ. eigenvalues --   -0.61238  -0.60711  -0.56188  -0.54473  -0.52767
 Alpha  occ. eigenvalues --   -0.50295  -0.49189  -0.48984  -0.48147  -0.47762
 Alpha  occ. eigenvalues --   -0.46455  -0.46137  -0.45566  -0.44148  -0.43321
 Alpha  occ. eigenvalues --   -0.42168  -0.41249  -0.40400  -0.39773  -0.39407
 Alpha  occ. eigenvalues --   -0.38506  -0.37922  -0.37121  -0.36422  -0.36043
 Alpha  occ. eigenvalues --   -0.35864  -0.35113  -0.33646  -0.32122  -0.31108
 Alpha  occ. eigenvalues --   -0.30461  -0.26401  -0.25897  -0.25258  -0.22183
 Alpha virt. eigenvalues --   -0.01798  -0.00537   0.06705   0.08815   0.09243
 Alpha virt. eigenvalues --    0.10401   0.10927   0.13188   0.13953   0.14275
 Alpha virt. eigenvalues --    0.14608   0.15471   0.15868   0.16240   0.16577

 Mulliken charges:
               1
     1  C   -0.331385
     2  C   -0.201516
     3  C    0.095333
     4  C   -0.093752
     5  C    0.070628
     6  O   -0.576443
     7  N   -0.516557
     8  C   -0.117371
     9  C   -0.102814
    10  C   -0.130534
    11  C    0.312541
    12  C   -0.007392
    13  C    0.315972
    14  C   -0.134715
    15  H    0.119585
    16  H    0.120360
    17  H    0.118166
    18  F   -0.307380
    19  F   -0.300910
    20  H    0.112762
    21  H    0.106219
    22  H    0.101966
    23  H    0.103774
    24  H    0.102843
    25  H    0.084391
    26  H    0.099856
    27  H    0.081613
    28  H    0.310097
    29  H    0.123440
    30  H    0.122887
    31  H    0.079688
    32  C   -0.326266
    33  H    0.103712
    34  H    0.098751
    35  H    0.116003
    36  H    0.246448
 Sum of Mulliken charges =   0.00000

 Dipole moment (field-independent basis, Debye):
    X=             -2.0594    Y=              0.1369    Z=             -0.1095  Tot=              2.0669
 Quadrupole moment (field-independent basis, Debye-Ang):
   XX=            -92.1074   YY=           -101.4940   ZZ=           -103.7304
   XY=              3.5695   XZ=             -4.8002   YZ=              4.6397

 Normal termination of Gaussian 09 at Wed Mar  6 11:44:45 2019.
