 Gaussian 09, Revision D.01,
 Gaussian 09:  EM64L-G09RevD.01 24-Apr-2013

 ----------------------------------------------------------------------
 # b3lyp/6-31g(d,p) Opt=(maxcycles=100,MaxStep=1) scrf=(solvent=chlorof
 orm)
 ----------------------------------------------------------------------

 ------------
 AT3_2ginp003
 ------------
 Symbolic Z-matrix:
 Charge =  0 Multiplicity = 1

 SCF Done:  E(RB3LYP) =  -836.501450879     A.U. after   12 cycles
 SCF Done:  E(RB3LYP) =  -836.501592720     A.U. after    8 cycles
 SCF Done:  E(RB3LYP) =  -836.501595910     A.U. after    9 cycles
 SCF Done:  E(RB3LYP) =  -836.501544195     A.U. after    9 cycles
 SCF Done:  E(RB3LYP) =  -836.501683971     A.U. after    9 cycles
 SCF Done:  E(RB3LYP) =  -836.501690568     A.U. after    7 cycles
 SCF Done:  E(RB3LYP) =  -836.501694280     A.U. after    8 cycles
 SCF Done:  E(RB3LYP) =  -836.501696347     A.U. after    8 cycles
 SCF Done:  E(RB3LYP) =  -836.501696398     A.U. after    7 cycles
 SCF Done:  E(RB3LYP) =  -836.501695857     A.U. after    7 cycles
 SCF Done:  E(RB3LYP) =  -836.501659870     A.U. after    9 cycles
 SCF Done:  E(RB3LYP) =  -836.501706250     A.U. after    7 cycles
 SCF Done:  E(RB3LYP) =  -836.500389938     A.U. after   10 cycles
 SCF Done:  E(RB3LYP) =  -836.501708569     A.U. after    6 cycles
 SCF Done:  E(RB3LYP) =  -836.501651960     A.U. after    8 cycles
 SCF Done:  E(RB3LYP) =  -836.501715465     A.U. after    8 cycles
 SCF Done:  E(RB3LYP) =  -836.501717259     A.U. after    8 cycles
 SCF Done:  E(RB3LYP) =  -836.501718095     A.U. after    7 cycles
 SCF Done:  E(RB3LYP) =  -836.501716883     A.U. after    8 cycles
 SCF Done:  E(RB3LYP) =  -836.501718468     A.U. after    7 cycles
 Optimization completed.
    -- Stationary point found.

                         Standard orientation:
 ---------------------------------------------------------------------
 Center     Atomic      Atomic             Coordinates (Angstroms)
 Number     Number       Type             X           Y           Z
 ---------------------------------------------------------------------
      1          6           0       -0.787830    2.592005    1.426916
      2          6           0       -1.894842    1.617405    1.001238
      3          6           0       -1.363270    0.293253    0.421043
      4          6           0       -2.405781   -0.858946    0.393822
      5          6           0       -3.656266   -0.518779   -0.435657
      6          8           0       -3.372640   -0.281120   -1.806711
      7          7           0       -0.867252    0.552593   -0.956576
      8          6           0        0.197268   -0.337124   -1.444942
      9          6           0        3.918894   -0.222366    0.804293
     10          6           0        3.201509   -1.415531    0.722781
     11          6           0        2.011953   -1.426715    0.002025
     12          6           0        1.493909   -0.307479   -0.651991
     13          6           0        2.257435    0.855449   -0.529892
     14          6           0        3.448660    0.933472    0.176454
     15          1           0        4.848734   -0.190477    1.362175
     16          1           0        3.543680   -2.324531    1.203772
     17          1           0        3.984718    1.874087    0.225606
     18          9           0        1.317314   -2.586867   -0.072371
     19          9           0        1.786959    1.978141   -1.137358
     20          1           0       -1.215589    3.531656    1.789654
     21          1           0       -0.183162    2.165649    2.234719
     22          1           0       -0.105432    2.840562    0.606672
     23          1           0       -2.524096    1.403775    1.870845
     24          1           0       -2.547277    2.093877    0.258518
     25          1           0       -1.920685   -1.709548   -0.104952
     26          1           0       -4.172141    0.344105    0.021411
     27          1           0       -4.358919   -1.360916   -0.385358
     28          1           0       -2.503742    0.178177   -1.805268
     29          1           0       -0.176284   -1.361631   -1.468184
     30          1           0        0.405823   -0.052090   -2.481360
     31          1           0       -0.533292   -0.039570    1.067925
     32          6           0       -2.791585   -1.321520    1.806001
     33          1           0       -3.389572   -0.572947    2.336913
     34          1           0       -3.385026   -2.240163    1.760843
     35          1           0       -1.903135   -1.528357    2.412103
     36          1           0       -0.531499    1.508936   -1.021302
 ---------------------------------------------------------------------

 The electronic state is 1-A.
 Alpha  occ. eigenvalues --  -24.72205 -24.71630 -19.11148 -14.33515 -10.28507
 Alpha  occ. eigenvalues --  -10.28492 -10.22586 -10.21544 -10.21427 -10.21229
 Alpha  occ. eigenvalues --  -10.21166 -10.20396 -10.20328 -10.18418 -10.18405
 Alpha  occ. eigenvalues --  -10.17732 -10.17450  -1.22981  -1.22651  -0.98823
 Alpha  occ. eigenvalues --   -0.91730  -0.87417  -0.80291  -0.77463  -0.75857
 Alpha  occ. eigenvalues --   -0.75753  -0.69469  -0.66166  -0.65336  -0.63118
 Alpha  occ. eigenvalues --   -0.61616  -0.60926  -0.56157  -0.55148  -0.52958
 Alpha  occ. eigenvalues --   -0.50218  -0.49198  -0.49088  -0.48446  -0.47884
 Alpha  occ. eigenvalues --   -0.47002  -0.46233  -0.44706  -0.44328  -0.43556
 Alpha  occ. eigenvalues --   -0.42318  -0.40729  -0.40571  -0.40428  -0.39251
 Alpha  occ. eigenvalues --   -0.38609  -0.38300  -0.37543  -0.36850  -0.36229
 Alpha  occ. eigenvalues --   -0.35942  -0.35389  -0.33842  -0.32796  -0.31403
 Alpha  occ. eigenvalues --   -0.30902  -0.26036  -0.25317  -0.24403  -0.23486
 Alpha virt. eigenvalues --   -0.02012  -0.00616   0.06821   0.08792   0.09413
 Alpha virt. eigenvalues --    0.10620   0.11843   0.12758   0.13767   0.14000
 Alpha virt. eigenvalues --    0.14237   0.15105   0.15610   0.15890   0.16367

 Mulliken charges:
               1
     1  C   -0.333942
     2  C   -0.206820
     3  C    0.091341
     4  C   -0.094542
     5  C    0.085429
     6  O   -0.608290
     7  N   -0.554150
     8  C   -0.109314
     9  C   -0.101104
    10  C   -0.137168
    11  C    0.316668
    12  C   -0.016994
    13  C    0.317448
    14  C   -0.133801
    15  H    0.119860
    16  H    0.118787
    17  H    0.119856
    18  F   -0.299234
    19  F   -0.301697
    20  H    0.109627
    21  H    0.111556
    22  H    0.103570
    23  H    0.109029
    24  H    0.109802
    25  H    0.094972
    26  H    0.069457
    27  H    0.085057
    28  H    0.330614
    29  H    0.132883
    30  H    0.135014
    31  H    0.081240
    32  C   -0.329404
    33  H    0.108087
    34  H    0.108674
    35  H    0.106033
    36  H    0.261456
 Sum of Mulliken charges =   0.00000

 Dipole moment (field-independent basis, Debye):
    X=              4.4022    Y=              0.9897    Z=              3.1872  Tot=              5.5242
 Quadrupole moment (field-independent basis, Debye-Ang):
   XX=           -101.9228   YY=           -100.1576   ZZ=           -104.4528
   XY=             -1.4525   XZ=             -6.9184   YZ=             -1.2901

 Normal termination of Gaussian 09 at Wed Mar  6 22:17:31 2019.
