 Gaussian 09, Revision D.01,
 Gaussian 09:  EM64L-G09RevD.01 24-Apr-2013

 ---------------------------------------------------------------
 # b3lyp/6-31g(d,p) Opt=(maxcycles=50) scrf=(solvent=chloroform)
 ---------------------------------------------------------------

 ------------
 AT3_2ginp004
 ------------
 Symbolic Z-matrix:
 Charge =  0 Multiplicity = 1

 SCF Done:  E(RB3LYP) =  -836.497135394     A.U. after   12 cycles
 SCF Done:  E(RB3LYP) =  -836.499978196     A.U. after   10 cycles
 SCF Done:  E(RB3LYP) =  -836.496931772     A.U. after   11 cycles
 SCF Done:  E(RB3LYP) =  -836.500693836     A.U. after    9 cycles
 SCF Done:  E(RB3LYP) =  -836.500984460     A.U. after   10 cycles
 SCF Done:  E(RB3LYP) =  -836.500461820     A.U. after    9 cycles
 SCF Done:  E(RB3LYP) =  -836.501028548     A.U. after    6 cycles
 SCF Done:  E(RB3LYP) =  -836.501063107     A.U. after    9 cycles
 SCF Done:  E(RB3LYP) =  -836.501083891     A.U. after    8 cycles
 SCF Done:  E(RB3LYP) =  -836.501095151     A.U. after    8 cycles
 SCF Done:  E(RB3LYP) =  -836.501099919     A.U. after    8 cycles
 SCF Done:  E(RB3LYP) =  -836.501103049     A.U. after    8 cycles
 SCF Done:  E(RB3LYP) =  -836.501104451     A.U. after    7 cycles
 SCF Done:  E(RB3LYP) =  -836.501104408     A.U. after    6 cycles
 Optimization completed.
    -- Stationary point found.

                         Standard orientation:
 ---------------------------------------------------------------------
 Center     Atomic      Atomic             Coordinates (Angstroms)
 Number     Number       Type             X           Y           Z
 ---------------------------------------------------------------------
      1          6           0        3.032574    2.477222   -0.464592
      2          6           0        2.396969    1.580756    0.604545
      3          6           0        1.597764    0.383370    0.049218
      4          6           0        2.437097   -0.620774   -0.785262
      5          6           0        1.528823   -1.674291   -1.451168
      6          8           0        0.955618   -2.593222   -0.532689
      7          7           0        0.854502   -0.347906    1.109038
      8          6           0       -0.345199    0.327422    1.638801
      9          6           0       -3.670279    0.155667   -1.142672
     10          6           0       -3.330769   -0.972524   -0.393264
     11          6           0       -2.258230   -0.882672    0.483826
     12          6           0       -1.499487    0.276916    0.663827
     13          6           0       -1.881869    1.368050   -0.117610
     14          6           0       -2.945742    1.340510   -1.011954
     15          1           0       -4.504035    0.109322   -1.835328
     16          1           0       -3.876622   -1.904819   -0.478888
     17          1           0       -3.185880    2.227531   -1.586470
     18          9           0       -1.925933   -1.969595    1.216764
     19          9           0       -1.166206    2.513929   -0.002887
     20          1           0        3.504780    3.351793   -0.006017
     21          1           0        3.802632    1.953040   -1.039215
     22          1           0        2.278577    2.841191   -1.171784
     23          1           0        3.171274    1.215901    1.291812
     24          1           0        1.717621    2.192693    1.209648
     25          1           0        2.886650   -0.045873   -1.605883
     26          1           0        2.118842   -2.261492   -2.166025
     27          1           0        0.748013   -1.152872   -2.032769
     28          1           0        0.641360   -2.025740    0.204118
     29          1           0       -0.633744   -0.206198    2.548360
     30          1           0       -0.165275    1.373195    1.917601
     31          1           0        0.834270    0.785904   -0.629080
     32          6           0        3.570451   -1.293472    0.004689
     33          1           0        4.261348   -0.564597    0.438814
     34          1           0        3.175563   -1.919041    0.810281
     35          1           0        4.152058   -1.947497   -0.653475
     36          1           0        1.482753   -0.537417    1.887346
 ---------------------------------------------------------------------

 The electronic state is 1-A.
 Alpha  occ. eigenvalues --  -24.71616 -24.71450 -19.11237 -14.33441 -10.28296
 Alpha  occ. eigenvalues --  -10.28200 -10.22573 -10.21390 -10.21359 -10.21034
 Alpha  occ. eigenvalues --  -10.20949 -10.20102 -10.20039 -10.18319 -10.18105
 Alpha  occ. eigenvalues --  -10.17518 -10.16953  -1.22580  -1.22469  -0.98888
 Alpha  occ. eigenvalues --   -0.91503  -0.87173  -0.80087  -0.77192  -0.75581
 Alpha  occ. eigenvalues --   -0.75268  -0.69373  -0.66977  -0.65008  -0.62855
 Alpha  occ. eigenvalues --   -0.61252  -0.60025  -0.55826  -0.55297  -0.52563
 Alpha  occ. eigenvalues --   -0.49794  -0.49565  -0.48919  -0.47730  -0.46734
 Alpha  occ. eigenvalues --   -0.46481  -0.46107  -0.45449  -0.43909  -0.43840
 Alpha  occ. eigenvalues --   -0.42200  -0.41440  -0.40660  -0.39690  -0.38976
 Alpha  occ. eigenvalues --   -0.38492  -0.37447  -0.36874  -0.36141  -0.35728
 Alpha  occ. eigenvalues --   -0.35622  -0.35140  -0.34785  -0.32386  -0.31400
 Alpha  occ. eigenvalues --   -0.30936  -0.25807  -0.25006  -0.24518  -0.23129
 Alpha virt. eigenvalues --   -0.01841  -0.00293   0.07187   0.08291   0.09319
 Alpha virt. eigenvalues --    0.11010   0.11848   0.13442   0.13788   0.14344
 Alpha virt. eigenvalues --    0.14893   0.15333   0.15581   0.16016   0.16677

 Mulliken charges:
               1
     1  C   -0.327981
     2  C   -0.187218
     3  C    0.077490
     4  C   -0.092121
     5  C    0.072835
     6  O   -0.596414
     7  N   -0.547936
     8  C   -0.101928
     9  C   -0.100210
    10  C   -0.137632
    11  C    0.333822
    12  C   -0.011274
    13  C    0.323266
    14  C   -0.139949
    15  H    0.118655
    16  H    0.119077
    17  H    0.117143
    18  F   -0.297409
    19  F   -0.304282
    20  H    0.105443
    21  H    0.111963
    22  H    0.109172
    23  H    0.095591
    24  H    0.100276
    25  H    0.090764
    26  H    0.086797
    27  H    0.067796
    28  H    0.327068
    29  H    0.126146
    30  H    0.110199
    31  H    0.097318
    32  C   -0.324749
    33  H    0.102003
    34  H    0.109752
    35  H    0.105004
    36  H    0.261524
 Sum of Mulliken charges =   0.00000

 Dipole moment (field-independent basis, Debye):
    X=             -0.6592    Y=              3.4110    Z=              0.5290  Tot=              3.5141
 Quadrupole moment (field-independent basis, Debye-Ang):
   XX=            -89.2191   YY=           -113.5364   ZZ=            -94.8187
   XY=              2.8755   XZ=              5.9721   YZ=             -1.7095

 Normal termination of Gaussian 09 at Wed Mar  6 12:25:28 2019.
