 Gaussian 09, Revision D.01,
 Gaussian 09:  EM64L-G09RevD.01 24-Apr-2013

 ---------------------------------------------------------------
 # b3lyp/6-31g(d,p) Opt=(maxcycles=50) scrf=(solvent=chloroform)
 ---------------------------------------------------------------

 ------------
 AT3_1ginp002
 ------------
 Symbolic Z-matrix:
 Charge =  0 Multiplicity = 1

 SCF Done:  E(RB3LYP) =  -836.495413858     A.U. after   12 cycles
 SCF Done:  E(RB3LYP) =  -836.498336099     A.U. after   10 cycles
 SCF Done:  E(RB3LYP) =  -836.498161219     A.U. after   10 cycles
 SCF Done:  E(RB3LYP) =  -836.497945571     A.U. after   10 cycles
 SCF Done:  E(RB3LYP) =  -836.498526191     A.U. after    6 cycles
 SCF Done:  E(RB3LYP) =  -836.498596251     A.U. after    9 cycles
 SCF Done:  E(RB3LYP) =  -836.498639198     A.U. after    9 cycles
 SCF Done:  E(RB3LYP) =  -836.498701606     A.U. after    9 cycles
 SCF Done:  E(RB3LYP) =  -836.498720961     A.U. after    9 cycles
 SCF Done:  E(RB3LYP) =  -836.498733666     A.U. after    9 cycles
 SCF Done:  E(RB3LYP) =  -836.498745516     A.U. after    8 cycles
 SCF Done:  E(RB3LYP) =  -836.498769152     A.U. after    9 cycles
 SCF Done:  E(RB3LYP) =  -836.498776213     A.U. after    8 cycles
 SCF Done:  E(RB3LYP) =  -836.498772153     A.U. after    8 cycles
 SCF Done:  E(RB3LYP) =  -836.498776313     A.U. after    8 cycles
 SCF Done:  E(RB3LYP) =  -836.498775465     A.U. after    7 cycles
 SCF Done:  E(RB3LYP) =  -836.498775903     A.U. after    6 cycles
 Optimization completed.
    -- Stationary point found.

                         Standard orientation:
 ---------------------------------------------------------------------
 Center     Atomic      Atomic             Coordinates (Angstroms)
 Number     Number       Type             X           Y           Z
 ---------------------------------------------------------------------
      1          6           0       -3.887070    1.867474   -1.078286
      2          6           0       -2.459313    1.594041   -0.591664
      3          6           0       -2.031796    0.115103   -0.664590
      4          6           0       -2.972596   -0.847184    0.112450
      5          6           0       -3.052201   -0.520497    1.617087
      6          8           0       -1.817648   -0.696726    2.301017
      7          7           0       -0.649429   -0.050817   -0.146182
      8          6           0        0.390071    0.694236   -0.881001
      9          6           0        4.351908   -0.439561    0.474102
     10          6           0        3.852261    0.823790    0.789958
     11          6           0        2.578707    1.164649    0.347983
     12          6           0        1.770546    0.309860   -0.404062
     13          6           0        2.325476   -0.940171   -0.685239
     14          6           0        3.587662   -1.340298   -0.270569
     15          1           0        5.342243   -0.725833    0.811960
     16          1           0        4.425833    1.539460    1.367357
     17          1           0        3.950082   -2.328941   -0.526806
     18          9           0        2.100504    2.392448    0.653657
     19          9           0        1.566434   -1.810291   -1.400079
     20          1           0       -4.643295    1.446062   -0.409624
     21          1           0       -4.069306    2.944752   -1.139195
     22          1           0       -4.053529    1.447050   -2.076849
     23          1           0       -1.774936    2.183296   -1.211230
     24          1           0       -2.331111    1.960784    0.434011
     25          1           0       -3.978072   -0.693142   -0.298489
     26          1           0       -3.777747   -1.193352    2.090512
     27          1           0       -3.436236    0.503149    1.754230
     28          1           0       -1.147301   -0.274287    1.724401
     29          1           0        0.321393    0.518923   -1.967678
     30          1           0        0.254368    1.762509   -0.714390
     31          1           0       -2.073757   -0.179040   -1.731308
     32          6           0       -2.609372   -2.324899   -0.109645
     33          1           0       -1.705448   -2.603178    0.440308
     34          1           0       -3.413251   -2.972386    0.255341
     35          1           0       -2.456457   -2.547870   -1.171258
     36          1           0       -0.414437   -1.037109   -0.237516
 ---------------------------------------------------------------------

 The electronic state is 1-A.
 Alpha  occ. eigenvalues --  -24.71978 -24.71565 -19.11785 -14.33346 -10.28423
 Alpha  occ. eigenvalues --  -10.28414 -10.22446 -10.21705 -10.21644 -10.21329
 Alpha  occ. eigenvalues --  -10.21066 -10.20270 -10.20196 -10.18659 -10.18190
 Alpha  occ. eigenvalues --  -10.17594 -10.17259  -1.22867  -1.22620  -0.99311
 Alpha  occ. eigenvalues --   -0.91677  -0.87365  -0.80380  -0.77207  -0.75753
 Alpha  occ. eigenvalues --   -0.75688  -0.69346  -0.67036  -0.65170  -0.63044
 Alpha  occ. eigenvalues --   -0.61901  -0.59793  -0.55942  -0.54904  -0.53062
 Alpha  occ. eigenvalues --   -0.50245  -0.49286  -0.49075  -0.48003  -0.47191
 Alpha  occ. eigenvalues --   -0.46844  -0.46167  -0.45077  -0.44139  -0.43962
 Alpha  occ. eigenvalues --   -0.42938  -0.41733  -0.40814  -0.40127  -0.39417
 Alpha  occ. eigenvalues --   -0.38288  -0.37393  -0.37051  -0.36601  -0.36119
 Alpha  occ. eigenvalues --   -0.35780  -0.35600  -0.34070  -0.32446  -0.31536
 Alpha  occ. eigenvalues --   -0.30616  -0.25957  -0.25175  -0.25076  -0.23541
 Alpha virt. eigenvalues --   -0.01883  -0.00452   0.06927   0.08375   0.09514
 Alpha virt. eigenvalues --    0.11236   0.12182   0.13214   0.13925   0.14078
 Alpha virt. eigenvalues --    0.14570   0.15231   0.15774   0.15952   0.16642

 Mulliken charges:
               1
     1  C   -0.331351
     2  C   -0.183571
     3  C    0.088449
     4  C   -0.102781
     5  C    0.072720
     6  O   -0.591898
     7  N   -0.557163
     8  C   -0.078726
     9  C   -0.099078
    10  C   -0.138347
    11  C    0.319447
    12  C   -0.033732
    13  C    0.324487
    14  C   -0.136492
    15  H    0.119536
    16  H    0.118919
    17  H    0.119464
    18  F   -0.297517
    19  F   -0.302283
    20  H    0.112944
    21  H    0.107201
    22  H    0.107509
    23  H    0.104091
    24  H    0.107789
    25  H    0.097209
    26  H    0.090992
    27  H    0.077418
    28  H    0.315110
    29  H    0.105708
    30  H    0.131092
    31  H    0.074927
    32  C   -0.332197
    33  H    0.114861
    34  H    0.107088
    35  H    0.102577
    36  H    0.265599
 Sum of Mulliken charges =   0.00000

 Dipole moment (field-independent basis, Debye):
    X=              1.5379    Y=              0.2718    Z=             -2.9585  Tot=              3.3454
 Quadrupole moment (field-independent basis, Debye-Ang):
   XX=            -83.8045   YY=           -101.0203   ZZ=           -109.7283
   XY=             -3.8834   XZ=              7.6671   YZ=              1.3813

 Normal termination of Gaussian 09 at Wed Mar  6 13:11:19 2019.
