 Gaussian 09, Revision D.01,
 Gaussian 09:  EM64L-G09RevD.01 24-Apr-2013

 ---------------------------------------------------------------
 # b3lyp/6-31g(d,p) Opt=(maxcycles=50) scrf=(solvent=chloroform)
 ---------------------------------------------------------------

 ------------
 AT3_2ginp006
 ------------
 Symbolic Z-matrix:
 Charge =  0 Multiplicity = 1

 SCF Done:  E(RB3LYP) =  -836.487632128     A.U. after   12 cycles
 SCF Done:  E(RB3LYP) =  -836.491751676     A.U. after   10 cycles
 SCF Done:  E(RB3LYP) =  -836.492167522     A.U. after    9 cycles
 SCF Done:  E(RB3LYP) =  -836.492223883     A.U. after    9 cycles
 SCF Done:  E(RB3LYP) =  -836.492239809     A.U. after    8 cycles
 SCF Done:  E(RB3LYP) =  -836.492253978     A.U. after    8 cycles
 SCF Done:  E(RB3LYP) =  -836.492269855     A.U. after    9 cycles
 SCF Done:  E(RB3LYP) =  -836.492284271     A.U. after    9 cycles
 SCF Done:  E(RB3LYP) =  -836.492295926     A.U. after    9 cycles
 SCF Done:  E(RB3LYP) =  -836.492302642     A.U. after    8 cycles
 SCF Done:  E(RB3LYP) =  -836.492305609     A.U. after    8 cycles
 SCF Done:  E(RB3LYP) =  -836.492308078     A.U. after    7 cycles
 SCF Done:  E(RB3LYP) =  -836.492310455     A.U. after    8 cycles
 SCF Done:  E(RB3LYP) =  -836.492310910     A.U. after    7 cycles
 SCF Done:  E(RB3LYP) =  -836.492310982     A.U. after    6 cycles
 Optimization completed.
    -- Stationary point found.

                         Standard orientation:
 ---------------------------------------------------------------------
 Center     Atomic      Atomic             Coordinates (Angstroms)
 Number     Number       Type             X           Y           Z
 ---------------------------------------------------------------------
      1          6           0       -3.633157   -2.166349   -1.301056
      2          6           0       -2.290581   -1.899508   -0.610000
      3          6           0       -1.893842   -0.408983   -0.504976
      4          6           0       -2.886763    0.442394    0.325910
      5          6           0       -2.560443    1.931926    0.185666
      6          8           0       -3.639054    2.685174    0.746055
      7          7           0       -0.521557   -0.205859    0.001855
      8          6           0        0.543131   -0.536762   -0.953453
      9          6           0        4.444303    0.380494    0.713421
     10          6           0        3.729101   -0.724268    1.180029
     11          6           0        2.485796   -0.983461    0.619958
     12          6           0        1.904606   -0.207463   -0.384310
     13          6           0        2.662717    0.886287   -0.804705
     14          6           0        3.915237    1.196981   -0.286308
     15          1           0        5.419058    0.606357    1.132769
     16          1           0        4.114648   -1.373124    1.957820
     17          1           0        4.450543    2.060081   -0.664810
     18          9           0        1.776749   -2.049304    1.072536
     19          9           0        2.156608    1.680124   -1.777128
     20          1           0       -3.797291   -3.241226   -1.428665
     21          1           0       -4.477995   -1.772360   -0.727923
     22          1           0       -3.663881   -1.706955   -2.295835
     23          1           0       -2.295921   -2.344618    0.393513
     24          1           0       -1.503050   -2.421861   -1.166383
     25          1           0       -3.881688    0.306508   -0.118327
     26          1           0       -2.427996    2.180658   -0.879766
     27          1           0       -1.612826    2.151877    0.693816
     28          1           0       -3.355451    3.606817    0.797542
     29          1           0        0.546650   -1.594135   -1.264885
     30          1           0        0.387239    0.060547   -1.855241
     31          1           0       -1.901868    0.004110   -1.524656
     32          6           0       -2.967070    0.037873    1.805483
     33          1           0       -3.321914   -0.989340    1.933250
     34          1           0       -1.989254    0.123916    2.293467
     35          1           0       -3.657526    0.700811    2.332438
     36          1           0       -0.386565   -0.770796    0.837832
 ---------------------------------------------------------------------

 The electronic state is 1-A.
 Alpha  occ. eigenvalues --  -24.71597 -24.71286 -19.13636 -14.31648 -10.28106
 Alpha  occ. eigenvalues --  -10.28077 -10.21841 -10.21698 -10.20908 -10.20860
 Alpha  occ. eigenvalues --  -10.20830 -10.20038 -10.19983 -10.17948 -10.17697
 Alpha  occ. eigenvalues --  -10.17264 -10.16551  -1.22499  -1.22319  -1.00589
 Alpha  occ. eigenvalues --   -0.90691  -0.87038  -0.79970  -0.76760  -0.75482
 Alpha  occ. eigenvalues --   -0.75164  -0.68736  -0.66956  -0.64573  -0.62760
 Alpha  occ. eigenvalues --   -0.61062  -0.59618  -0.55718  -0.54992  -0.52322
 Alpha  occ. eigenvalues --   -0.50751  -0.49155  -0.48813  -0.48194  -0.46532
 Alpha  occ. eigenvalues --   -0.46301  -0.45878  -0.44764  -0.43954  -0.43793
 Alpha  occ. eigenvalues --   -0.42846  -0.40594  -0.40166  -0.39756  -0.38719
 Alpha  occ. eigenvalues --   -0.38321  -0.37271  -0.36499  -0.36280  -0.35479
 Alpha  occ. eigenvalues --   -0.35400  -0.34723  -0.33955  -0.32084  -0.31394
 Alpha  occ. eigenvalues --   -0.30715  -0.26079  -0.25536  -0.24927  -0.21946
 Alpha virt. eigenvalues --   -0.01514  -0.00206   0.07353   0.08394   0.09300
 Alpha virt. eigenvalues --    0.10437   0.10988   0.11711   0.14329   0.14538
 Alpha virt. eigenvalues --    0.14980   0.15286   0.15759   0.16187   0.16800

 Mulliken charges:
               1
     1  C   -0.327313
     2  C   -0.186209
     3  C    0.070822
     4  C   -0.061589
     5  C    0.068744
     6  O   -0.571583
     7  N   -0.527298
     8  C   -0.079193
     9  C   -0.100644
    10  C   -0.138469
    11  C    0.321659
    12  C   -0.022192
    13  C    0.315281
    14  C   -0.140517
    15  H    0.116981
    16  H    0.116756
    17  H    0.116128
    18  F   -0.303186
    19  F   -0.299564
    20  H    0.103259
    21  H    0.112389
    22  H    0.105524
    23  H    0.095323
    24  H    0.096700
    25  H    0.093777
    26  H    0.073440
    27  H    0.094773
    28  H    0.318903
    29  H    0.101340
    30  H    0.119579
    31  H    0.086259
    32  C   -0.334670
    33  H    0.100974
    34  H    0.101213
    35  H    0.116921
    36  H    0.245684
 Sum of Mulliken charges =   0.00000

 Dipole moment (field-independent basis, Debye):
    X=              2.5614    Y=             -0.1758    Z=             -0.0698  Tot=              2.5683
 Quadrupole moment (field-independent basis, Debye-Ang):
   XX=            -97.9070   YY=            -95.6809   ZZ=           -100.7851
   XY=              4.0415   XZ=              6.4794   YZ=              0.5578

 Normal termination of Gaussian 09 at Wed Mar  6 12:14:49 2019.
