 Gaussian 09, Revision D.01,
 Gaussian 09:  EM64L-G09RevD.01 24-Apr-2013

 ---------------------------------------------------------------
 # b3lyp/6-31g(d,p) Opt=(maxcycles=50) scrf=(solvent=chloroform)
 ---------------------------------------------------------------

 ------------
 AT3_1ginp004
 ------------
 Symbolic Z-matrix:
 Charge =  0 Multiplicity = 1

 SCF Done:  E(RB3LYP) =  -836.495984563     A.U. after   12 cycles
 SCF Done:  E(RB3LYP) =  -836.499875156     A.U. after   10 cycles
 SCF Done:  E(RB3LYP) =  -836.499998222     A.U. after   10 cycles
 SCF Done:  E(RB3LYP) =  -836.499820453     A.U. after   10 cycles
 SCF Done:  E(RB3LYP) =  -836.500285680     A.U. after    7 cycles
 SCF Done:  E(RB3LYP) =  -836.500381128     A.U. after    9 cycles
 SCF Done:  E(RB3LYP) =  -836.500105737     A.U. after    9 cycles
 SCF Done:  E(RB3LYP) =  -836.500434889     A.U. after    9 cycles
 SCF Done:  E(RB3LYP) =  -836.500440706     A.U. after    8 cycles
 SCF Done:  E(RB3LYP) =  -836.500440156     A.U. after    8 cycles
 SCF Done:  E(RB3LYP) =  -836.500441896     A.U. after    7 cycles
 SCF Done:  E(RB3LYP) =  -836.500441860     A.U. after    6 cycles
 Optimization completed.
    -- Stationary point found.

                         Standard orientation:
 ---------------------------------------------------------------------
 Center     Atomic      Atomic             Coordinates (Angstroms)
 Number     Number       Type             X           Y           Z
 ---------------------------------------------------------------------
      1          6           0        1.879676    2.717636    1.110429
      2          6           0        1.414298    1.816545   -0.039667
      3          6           0        1.290748    0.325974    0.329872
      4          6           0        2.596465   -0.288882    0.907267
      5          6           0        3.788370   -0.188415   -0.064407
      6          8           0        3.607476   -0.933611   -1.262743
      7          7           0        0.883351   -0.468441   -0.857368
      8          6           0       -0.382050   -0.108927   -1.520198
      9          6           0       -3.934709   -0.236499    0.988739
     10          6           0       -3.522667    0.980538    0.446188
     11          6           0       -2.383026    0.998828   -0.350337
     12          6           0       -1.621885   -0.134334   -0.640333
     13          6           0       -2.086059   -1.320429   -0.066425
     14          6           0       -3.214348   -1.406302    0.736445
     15          1           0       -4.821024   -0.274965    1.613070
     16          1           0       -4.063762    1.902128    0.626746
     17          1           0       -3.512266   -2.365027    1.144732
     18          9           0       -1.989244    2.186001   -0.876445
     19          9           0       -1.377759   -2.451953   -0.317507
     20          1           0        2.919304    2.529196    1.394278
     21          1           0        1.805548    3.770931    0.822901
     22          1           0        1.259330    2.574924    2.002789
     23          1           0        0.434006    2.173339   -0.369704
     24          1           0        2.085337    1.926155   -0.900535
     25          1           0        2.854950    0.312880    1.787530
     26          1           0        4.685126   -0.586098    0.426813
     27          1           0        3.995709    0.870493   -0.287686
     28          1           0        2.687480   -0.742406   -1.540721
     29          1           0       -0.289650    0.876822   -1.975374
     30          1           0       -0.517486   -0.824062   -2.337749
     31          1           0        0.525635    0.254644    1.124612
     32          6           0        2.397998   -1.737047    1.386634
     33          1           0        1.497492   -1.839142    2.002327
     34          1           0        2.326304   -2.433485    0.545640
     35          1           0        3.253108   -2.057733    1.990478
     36          1           0        0.797750   -1.439174   -0.566302
 ---------------------------------------------------------------------

 The electronic state is 1-A.
 Alpha  occ. eigenvalues --  -24.72013 -24.71873 -19.11770 -14.33387 -10.28521
 Alpha  occ. eigenvalues --  -10.28477 -10.22514 -10.21661 -10.21498 -10.21218
 Alpha  occ. eigenvalues --  -10.21164 -10.20383 -10.20349 -10.18609 -10.17943
 Alpha  occ. eigenvalues --  -10.17484 -10.17254  -1.22890  -1.22761  -0.99290
 Alpha  occ. eigenvalues --   -0.91569  -0.87403  -0.80180  -0.77287  -0.75855
 Alpha  occ. eigenvalues --   -0.75578  -0.69523  -0.67000  -0.65246  -0.63103
 Alpha  occ. eigenvalues --   -0.61852  -0.59823  -0.56099  -0.54736  -0.53007
 Alpha  occ. eigenvalues --   -0.50112  -0.49334  -0.49169  -0.48565  -0.47202
 Alpha  occ. eigenvalues --   -0.46877  -0.46328  -0.44846  -0.44270  -0.43757
 Alpha  occ. eigenvalues --   -0.43155  -0.41768  -0.40414  -0.40142  -0.39223
 Alpha  occ. eigenvalues --   -0.38449  -0.37604  -0.36851  -0.36592  -0.36239
 Alpha  occ. eigenvalues --   -0.35841  -0.35597  -0.34061  -0.32393  -0.31420
 Alpha  occ. eigenvalues --   -0.30657  -0.26113  -0.25324  -0.25003  -0.23428
 Alpha virt. eigenvalues --   -0.02008  -0.00599   0.06927   0.08513   0.09371
 Alpha virt. eigenvalues --    0.11201   0.12230   0.13386   0.13743   0.14057
 Alpha virt. eigenvalues --    0.14596   0.15341   0.15891   0.16167   0.16444

 Mulliken charges:
               1
     1  C   -0.330604
     2  C   -0.189688
     3  C    0.081607
     4  C   -0.099496
     5  C    0.073146
     6  O   -0.593005
     7  N   -0.542275
     8  C   -0.119173
     9  C   -0.101445
    10  C   -0.133736
    11  C    0.317346
    12  C   -0.014263
    13  C    0.315271
    14  C   -0.134366
    15  H    0.119811
    16  H    0.119018
    17  H    0.119456
    18  F   -0.298519
    19  F   -0.300094
    20  H    0.111597
    21  H    0.106406
    22  H    0.106875
    23  H    0.104073
    24  H    0.104175
    25  H    0.096809
    26  H    0.090193
    27  H    0.077168
    28  H    0.316378
    29  H    0.132579
    30  H    0.132810
    31  H    0.076823
    32  C   -0.333550
    33  H    0.102673
    34  H    0.114031
    35  H    0.107114
    36  H    0.264858
 Sum of Mulliken charges =   0.00000

 Dipole moment (field-independent basis, Debye):
    X=             -4.3210    Y=              0.9237    Z=              2.5741  Tot=              5.1138
 Quadrupole moment (field-independent basis, Debye-Ang):
   XX=           -102.9124   YY=           -102.3307   ZZ=           -101.0045
   XY=              6.2770   XZ=              3.7686   YZ=             -1.9706

 Normal termination of Gaussian 09 at Wed Mar  6 12:06:25 2019.
