 Gaussian 09, Revision D.01,
 Gaussian 09:  EM64L-G09RevD.01 24-Apr-2013

 ---------------------------------------------------------------
 # b3lyp/6-31g(d,p) Opt=(maxcycles=50) scrf=(solvent=chloroform)
 ---------------------------------------------------------------

 ------------
 AT3_2ginp011
 ------------
 Symbolic Z-matrix:
 Charge =  0 Multiplicity = 1

 SCF Done:  E(RB3LYP) =  -836.488225372     A.U. after   12 cycles
 SCF Done:  E(RB3LYP) =  -836.492033937     A.U. after   10 cycles
 SCF Done:  E(RB3LYP) =  -836.492502034     A.U. after   10 cycles
 SCF Done:  E(RB3LYP) =  -836.492598916     A.U. after    9 cycles
 SCF Done:  E(RB3LYP) =  -836.492642006     A.U. after    9 cycles
 SCF Done:  E(RB3LYP) =  -836.492657808     A.U. after    8 cycles
 SCF Done:  E(RB3LYP) =  -836.492668523     A.U. after    9 cycles
 SCF Done:  E(RB3LYP) =  -836.492674864     A.U. after    8 cycles
 SCF Done:  E(RB3LYP) =  -836.492681528     A.U. after    9 cycles
 SCF Done:  E(RB3LYP) =  -836.492687680     A.U. after    9 cycles
 SCF Done:  E(RB3LYP) =  -836.492689730     A.U. after    8 cycles
 SCF Done:  E(RB3LYP) =  -836.492690309     A.U. after    8 cycles
 SCF Done:  E(RB3LYP) =  -836.492690360     A.U. after    7 cycles
 SCF Done:  E(RB3LYP) =  -836.492690341     A.U. after    6 cycles
 Optimization completed.
    -- Stationary point found.

                         Standard orientation:
 ---------------------------------------------------------------------
 Center     Atomic      Atomic             Coordinates (Angstroms)
 Number     Number       Type             X           Y           Z
 ---------------------------------------------------------------------
      1          6           0       -3.567296   -2.253910   -1.294969
      2          6           0       -2.267393   -1.938560   -0.545352
      3          6           0       -1.899397   -0.438154   -0.477150
      4          6           0       -2.901739    0.411339    0.346841
      5          6           0       -2.700514    1.904873    0.038842
      6          8           0       -3.666496    2.748887    0.669478
      7          7           0       -0.526763   -0.199292    0.014952
      8          6           0        0.531206   -0.485012   -0.962701
      9          6           0        4.445009    0.364028    0.710556
     10          6           0        3.726588   -0.750502    1.148185
     11          6           0        2.479413   -0.986913    0.586938
     12          6           0        1.896702   -0.178619   -0.390779
     13          6           0        2.658422    0.923107   -0.783058
     14          6           0        3.915101    1.212061   -0.262008
     15          1           0        5.422975    0.572662    1.131341
     16          1           0        4.112761   -1.424111    1.904322
     17          1           0        4.452851    2.083284   -0.617707
     18          9           0        1.767130   -2.062330    1.011713
     19          9           0        2.151658    1.747660   -1.728847
     20          1           0       -3.718205   -3.335443   -1.372548
     21          1           0       -4.445843   -1.836790   -0.793287
     22          1           0       -3.543432   -1.849255   -2.313365
     23          1           0       -2.319007   -2.346158    0.472902
     24          1           0       -1.444063   -2.468338   -1.039667
     25          1           0       -3.912878    0.156857    0.004203
     26          1           0       -2.820314    2.071802   -1.037776
     27          1           0       -1.677785    2.200846    0.306389
     28          1           0       -3.414301    2.838132    1.597151
     29          1           0        0.532617   -1.528439   -1.319104
     30          1           0        0.366892    0.149847   -1.836808
     31          1           0       -1.924000   -0.050077   -1.506495
     32          6           0       -2.831758    0.141080    1.856947
     33          1           0       -3.009794   -0.911869    2.096091
     34          1           0       -1.853909    0.421903    2.263998
     35          1           0       -3.596024    0.720576    2.383937
     36          1           0       -0.364384   -0.778358    0.836377
 ---------------------------------------------------------------------

 The electronic state is 1-A.
 Alpha  occ. eigenvalues --  -24.71663 -24.71303 -19.13823 -14.31767 -10.28145
 Alpha  occ. eigenvalues --  -10.28127 -10.21897 -10.21751 -10.20979 -10.20968
 Alpha  occ. eigenvalues --  -10.20864 -10.20078 -10.20011 -10.17989 -10.17825
 Alpha  occ. eigenvalues --  -10.17331 -10.17160  -1.22558  -1.22344  -1.00745
 Alpha  occ. eigenvalues --   -0.90796  -0.87084  -0.80021  -0.76789  -0.75520
 Alpha  occ. eigenvalues --   -0.75249  -0.68812  -0.67602  -0.64598  -0.62800
 Alpha  occ. eigenvalues --   -0.61102  -0.59856  -0.55816  -0.55284  -0.52374
 Alpha  occ. eigenvalues --   -0.50316  -0.49864  -0.48851  -0.48238  -0.47067
 Alpha  occ. eigenvalues --   -0.45992  -0.45582  -0.45118  -0.43851  -0.43093
 Alpha  occ. eigenvalues --   -0.43013  -0.41133  -0.40408  -0.40208  -0.38776
 Alpha  occ. eigenvalues --   -0.38278  -0.37288  -0.36565  -0.36537  -0.35630
 Alpha  occ. eigenvalues --   -0.35434  -0.34775  -0.33656  -0.33427  -0.31548
 Alpha  occ. eigenvalues --   -0.30805  -0.26253  -0.25585  -0.24963  -0.21987
 Alpha virt. eigenvalues --   -0.01559  -0.00244   0.07169   0.07739   0.09508
 Alpha virt. eigenvalues --    0.10676   0.11162   0.11637   0.14287   0.14452
 Alpha virt. eigenvalues --    0.14642   0.14981   0.15620   0.15802   0.16549

 Mulliken charges:
               1
     1  C   -0.326330
     2  C   -0.187802
     3  C    0.070754
     4  C   -0.054333
     5  C    0.051816
     6  O   -0.572510
     7  N   -0.527970
     8  C   -0.078287
     9  C   -0.100664
    10  C   -0.138316
    11  C    0.321243
    12  C   -0.024087
    13  C    0.315559
    14  C   -0.140215
    15  H    0.117267
    16  H    0.116876
    17  H    0.116697
    18  F   -0.303328
    19  F   -0.298839
    20  H    0.104167
    21  H    0.111507
    22  H    0.106247
    23  H    0.094913
    24  H    0.097777
    25  H    0.091036
    26  H    0.095394
    27  H    0.099318
    28  H    0.318536
    29  H    0.101441
    30  H    0.120908
    31  H    0.086461
    32  C   -0.349562
    33  H    0.107639
    34  H    0.109622
    35  H    0.101451
    36  H    0.245615
 Sum of Mulliken charges =   0.00000

 Dipole moment (field-independent basis, Debye):
    X=              2.5722    Y=             -1.8259    Z=              1.2070  Tot=              3.3774
 Quadrupole moment (field-independent basis, Debye-Ang):
   XX=            -97.3236   YY=           -106.0471   ZZ=            -96.6114
   XY=              9.1712   XZ=              1.8143   YZ=              3.1604

 Normal termination of Gaussian 09 at Wed Mar  6 12:10:36 2019.
