 Gaussian 09, Revision D.01,
 Gaussian 09:  EM64L-G09RevD.01 24-Apr-2013

 ---------------------------------------------------------------
 # b3lyp/6-31g(d,p) Opt=(maxcycles=50) scrf=(solvent=chloroform)
 ---------------------------------------------------------------

 ------------
 AT3_2ginp010
 ------------
 Symbolic Z-matrix:
 Charge =  0 Multiplicity = 1

 SCF Done:  E(RB3LYP) =  -836.494882941     A.U. after   12 cycles
 SCF Done:  E(RB3LYP) =  -836.498635068     A.U. after   10 cycles
 SCF Done:  E(RB3LYP) =  -836.496302604     A.U. after   11 cycles
 SCF Done:  E(RB3LYP) =  -836.499147721     A.U. after    8 cycles
 SCF Done:  E(RB3LYP) =  -836.499371588     A.U. after   10 cycles
 SCF Done:  E(RB3LYP) =  -836.498969568     A.U. after   10 cycles
 SCF Done:  E(RB3LYP) =  -836.499496122     A.U. after    7 cycles
 SCF Done:  E(RB3LYP) =  -836.499614287     A.U. after    9 cycles
 SCF Done:  E(RB3LYP) =  -836.499653834     A.U. after    9 cycles
 SCF Done:  E(RB3LYP) =  -836.499667885     A.U. after    8 cycles
 SCF Done:  E(RB3LYP) =  -836.499675610     A.U. after    7 cycles
 SCF Done:  E(RB3LYP) =  -836.499679829     A.U. after    7 cycles
 SCF Done:  E(RB3LYP) =  -836.499680944     A.U. after    6 cycles
 SCF Done:  E(RB3LYP) =  -836.499680861     A.U. after    6 cycles
 Optimization completed.
    -- Stationary point found.

                         Standard orientation:
 ---------------------------------------------------------------------
 Center     Atomic      Atomic             Coordinates (Angstroms)
 Number     Number       Type             X           Y           Z
 ---------------------------------------------------------------------
      1          6           0       -1.155690    2.953686   -0.699867
      2          6           0       -0.779475    1.493698   -0.977463
      3          6           0       -1.390725    0.469178    0.001439
      4          6           0       -2.943496    0.506853    0.065232
      5          6           0       -3.474431   -0.472523    1.130926
      6          8           0       -3.336493   -1.836719    0.758423
      7          7           0       -0.925244   -0.919670   -0.276208
      8          6           0        0.230613   -1.403991    0.494774
      9          6           0        4.021350    0.632029   -0.118195
     10          6           0        3.542404   -0.255462   -1.084685
     11          6           0        2.326629   -0.883327   -0.852694
     12          6           0        1.552113   -0.682716    0.292167
     13          6           0        2.080588    0.217267    1.218596
     14          6           0        3.292020    0.877437    1.045620
     15          1           0        4.968892    1.136546   -0.274892
     16          1           0        4.089882   -0.462050   -1.996947
     17          1           0        3.642507    1.562729    1.808643
     18          9           0        1.844991   -1.741360   -1.786051
     19          9           0        1.367836    0.462426    2.345385
     20          1           0       -0.911453    3.236694    0.330483
     21          1           0       -0.606007    3.625909   -1.366226
     22          1           0       -2.222744    3.141057   -0.852435
     23          1           0       -1.068305    1.228826   -2.003221
     24          1           0        0.310082    1.394091   -0.936079
     25          1           0       -3.219903    1.511913    0.411914
     26          1           0       -4.543843   -0.287984    1.293777
     27          1           0       -2.965640   -0.267818    2.090176
     28          1           0       -2.445618   -1.870747    0.345902
     29          1           0       -0.030565   -1.366194    1.554409
     30          1           0        0.369325   -2.457403    0.233852
     31          1           0       -1.030976    0.715988    1.009505
     32          6           0       -3.621934    0.258915   -1.290359
     33          1           0       -3.366073   -0.728746   -1.683939
     34          1           0       -4.711068    0.292862   -1.181562
     35          1           0       -3.341332    1.009933   -2.034613
     36          1           0       -0.743758   -1.040024   -1.269637
 ---------------------------------------------------------------------

 The electronic state is 1-A.
 Alpha  occ. eigenvalues --  -24.71835 -24.71719 -19.11264 -14.33506 -10.28443
 Alpha  occ. eigenvalues --  -10.28403 -10.22670 -10.21518 -10.21420 -10.21146
 Alpha  occ. eigenvalues --  -10.21076 -10.20335 -10.20311 -10.18219 -10.18125
 Alpha  occ. eigenvalues --  -10.17532 -10.16826  -1.22784  -1.22662  -0.98951
 Alpha  occ. eigenvalues --   -0.91430  -0.87349  -0.80140  -0.77290  -0.75805
 Alpha  occ. eigenvalues --   -0.75191  -0.69447  -0.66937  -0.64988  -0.63077
 Alpha  occ. eigenvalues --   -0.61305  -0.60481  -0.55981  -0.55443  -0.52520
 Alpha  occ. eigenvalues --   -0.50340  -0.49132  -0.48915  -0.48488  -0.46886
 Alpha  occ. eigenvalues --   -0.46222  -0.46185  -0.45348  -0.44269  -0.43756
 Alpha  occ. eigenvalues --   -0.42350  -0.41341  -0.40631  -0.39815  -0.38948
 Alpha  occ. eigenvalues --   -0.38433  -0.37757  -0.37140  -0.36213  -0.36070
 Alpha  occ. eigenvalues --   -0.35750  -0.35283  -0.34820  -0.32293  -0.31440
 Alpha  occ. eigenvalues --   -0.30893  -0.26120  -0.25267  -0.24474  -0.22968
 Alpha virt. eigenvalues --   -0.02018  -0.00566   0.06967   0.08412   0.09580
 Alpha virt. eigenvalues --    0.10526   0.12055   0.13297   0.13592   0.14051
 Alpha virt. eigenvalues --    0.14802   0.15150   0.15711   0.15781   0.16637

 Mulliken charges:
               1
     1  C   -0.329258
     2  C   -0.191280
     3  C    0.076570
     4  C   -0.089928
     5  C    0.073809
     6  O   -0.597379
     7  N   -0.552103
     8  C   -0.110923
     9  C   -0.100604
    10  C   -0.137408
    11  C    0.318359
    12  C   -0.016582
    13  C    0.320197
    14  C   -0.136521
    15  H    0.119526
    16  H    0.118688
    17  H    0.118610
    18  F   -0.300176
    19  F   -0.300684
    20  H    0.108409
    21  H    0.105634
    22  H    0.113311
    23  H    0.097837
    24  H    0.102398
    25  H    0.090287
    26  H    0.087099
    27  H    0.065473
    28  H    0.331763
    29  H    0.133240
    30  H    0.131258
    31  H    0.098180
    32  C   -0.320622
    33  H    0.108978
    34  H    0.103301
    35  H    0.101409
    36  H    0.259134
 Sum of Mulliken charges =   0.00000

 Dipole moment (field-independent basis, Debye):
    X=              4.3996    Y=              3.0015    Z=             -1.3634  Tot=              5.4977
 Quadrupole moment (field-independent basis, Debye-Ang):
   XX=           -101.3993   YY=           -104.8132   ZZ=           -101.5156
   XY=             -6.8351   XZ=              1.7517   YZ=              2.0437

 Normal termination of Gaussian 09 at Wed Mar  6 12:22:28 2019.
