 Gaussian 09, Revision D.01,
 Gaussian 09:  EM64L-G09RevD.01 24-Apr-2013

 ---------------------------------------------------------------
 # b3lyp/6-31g(d,p) Opt=(maxcycles=50) scrf=(solvent=chloroform)
 ---------------------------------------------------------------

 ------------
 AT3_2ginp005
 ------------
 Symbolic Z-matrix:
 Charge =  0 Multiplicity = 1

 SCF Done:  E(RB3LYP) =  -836.495077709     A.U. after   12 cycles
 SCF Done:  E(RB3LYP) =  -836.498181049     A.U. after   10 cycles
 SCF Done:  E(RB3LYP) =  -836.495724007     A.U. after   11 cycles
 SCF Done:  E(RB3LYP) =  -836.498894805     A.U. after    9 cycles
 SCF Done:  E(RB3LYP) =  -836.499135242     A.U. after   10 cycles
 SCF Done:  E(RB3LYP) =  -836.499050418     A.U. after    9 cycles
 SCF Done:  E(RB3LYP) =  -836.499275406     A.U. after    9 cycles
 SCF Done:  E(RB3LYP) =  -836.499354142     A.U. after    8 cycles
 SCF Done:  E(RB3LYP) =  -836.499383905     A.U. after    9 cycles
 SCF Done:  E(RB3LYP) =  -836.499464967     A.U. after   10 cycles
 SCF Done:  E(RB3LYP) =  -836.497735684     A.U. after   13 cycles
 SCF Done:  E(RB3LYP) =  -836.499604934     A.U. after    9 cycles
 SCF Done:  E(RB3LYP) =  -836.499649725     A.U. after   10 cycles
 SCF Done:  E(RB3LYP) =  -836.499583340     A.U. after    9 cycles
 SCF Done:  E(RB3LYP) =  -836.499739715     A.U. after   10 cycles
 SCF Done:  E(RB3LYP) =  -836.499751830     A.U. after    9 cycles
 SCF Done:  E(RB3LYP) =  -836.499755251     A.U. after    8 cycles
 SCF Done:  E(RB3LYP) =  -836.499755930     A.U. after    7 cycles
 SCF Done:  E(RB3LYP) =  -836.499756040     A.U. after    7 cycles
 SCF Done:  E(RB3LYP) =  -836.499756065     A.U. after    6 cycles
 Optimization completed.
    -- Stationary point found.

                         Standard orientation:
 ---------------------------------------------------------------------
 Center     Atomic      Atomic             Coordinates (Angstroms)
 Number     Number       Type             X           Y           Z
 ---------------------------------------------------------------------
      1          6           0        1.633559    3.116731   -0.454897
      2          6           0        2.504403    1.995063    0.123459
      3          6           0        2.159514    0.569663   -0.352186
      4          6           0        3.220745   -0.473063    0.097718
      5          6           0        2.914887   -1.861938   -0.496100
      6          8           0        1.791298   -2.493217    0.099668
      7          7           0        0.792790    0.126847    0.044780
      8          6           0       -0.256600    0.339133   -0.973517
      9          6           0       -4.165846   -0.471080    0.712784
     10          6           0       -3.382178   -1.527761    0.245642
     11          6           0       -2.134815   -1.236748   -0.291386
     12          6           0       -1.622478    0.058435   -0.398298
     13          6           0       -2.447226    1.071646    0.094198
     14          6           0       -3.704010    0.843735    0.641249
     15          1           0       -5.143537   -0.674297    1.136825
     16          1           0       -3.718614   -2.556886    0.292277
     17          1           0       -4.292957    1.680134    0.999075
     18          9           0       -1.370040   -2.254946   -0.745426
     19          9           0       -1.993954    2.348363    0.030251
     20          1           0        1.989643    4.092829   -0.109881
     21          1           0        1.663335    3.122570   -1.550390
     22          1           0        0.587599    3.026151   -0.147066
     23          1           0        3.554803    2.189221   -0.129175
     24          1           0        2.447786    2.029294    1.219182
     25          1           0        4.174850   -0.148839   -0.343416
     26          1           0        3.776182   -2.522908   -0.337047
     27          1           0        2.785471   -1.764145   -1.589145
     28          1           0        1.123582   -1.777867    0.166031
     29          1           0       -0.251841    1.352832   -1.389763
     30          1           0       -0.065518   -0.354431   -1.798001
     31          1           0        2.173259    0.568871   -1.451115
     32          6           0        3.400199   -0.563620    1.620929
     33          1           0        2.468242   -0.860599    2.109757
     34          1           0        4.151707   -1.320870    1.868213
     35          1           0        3.732465    0.383702    2.054170
     36          1           0        0.518658    0.591109    0.907677
 ---------------------------------------------------------------------

 The electronic state is 1-A.
 Alpha  occ. eigenvalues --  -24.71912 -24.71590 -19.11258 -14.33349 -10.28520
 Alpha  occ. eigenvalues --  -10.28398 -10.22468 -10.21547 -10.21392 -10.21279
 Alpha  occ. eigenvalues --  -10.21119 -10.20276 -10.20208 -10.18306 -10.18267
 Alpha  occ. eigenvalues --  -10.17519 -10.16770  -1.22814  -1.22616  -0.98918
 Alpha  occ. eigenvalues --   -0.91396  -0.87343  -0.80229  -0.77068  -0.75767
 Alpha  occ. eigenvalues --   -0.75420  -0.69283  -0.66893  -0.65247  -0.63060
 Alpha  occ. eigenvalues --   -0.61441  -0.59764  -0.56069  -0.55458  -0.53107
 Alpha  occ. eigenvalues --   -0.50069  -0.49114  -0.48678  -0.48105  -0.47059
 Alpha  occ. eigenvalues --   -0.46173  -0.45800  -0.45106  -0.44278  -0.43948
 Alpha  occ. eigenvalues --   -0.42143  -0.41797  -0.40824  -0.39611  -0.39308
 Alpha  occ. eigenvalues --   -0.38990  -0.37402  -0.36874  -0.36059  -0.36018
 Alpha  occ. eigenvalues --   -0.35710  -0.35072  -0.34373  -0.32589  -0.31751
 Alpha  occ. eigenvalues --   -0.30608  -0.25996  -0.25191  -0.24455  -0.22980
 Alpha virt. eigenvalues --   -0.02012  -0.00469   0.06728   0.08386   0.10102
 Alpha virt. eigenvalues --    0.10969   0.11642   0.13022   0.13563   0.14226
 Alpha virt. eigenvalues --    0.14485   0.14941   0.15448   0.15666   0.16902

 Mulliken charges:
               1
     1  C   -0.334249
     2  C   -0.186662
     3  C    0.081954
     4  C   -0.086651
     5  C    0.073088
     6  O   -0.595400
     7  N   -0.558234
     8  C   -0.068042
     9  C   -0.099134
    10  C   -0.137418
    11  C    0.331718
    12  C   -0.051001
    13  C    0.320825
    14  C   -0.137703
    15  H    0.119801
    16  H    0.120418
    17  H    0.118814
    18  F   -0.292527
    19  F   -0.297395
    20  H    0.105687
    21  H    0.106644
    22  H    0.110419
    23  H    0.100968
    24  H    0.101149
    25  H    0.085352
    26  H    0.087268
    27  H    0.064361
    28  H    0.330159
    29  H    0.112250
    30  H    0.127031
    31  H    0.095961
    32  C   -0.319363
    33  H    0.110073
    34  H    0.102550
    35  H    0.100218
    36  H    0.257070
 Sum of Mulliken charges =   0.00000

 Dipole moment (field-independent basis, Debye):
    X=             -1.8319    Y=              3.5044    Z=              0.1290  Tot=              3.9564
 Quadrupole moment (field-independent basis, Debye-Ang):
   XX=            -85.8077   YY=           -111.6587   ZZ=            -99.6319
   XY=              8.2522   XZ=             -5.4730   YZ=              0.8687

 Normal termination of Gaussian 09 at Wed Mar  6 12:52:44 2019.
