 Gaussian 09, Revision D.01,
 Gaussian 09:  ES64L-G09RevD.01 24-Apr-2013

 ----------------------------------------------------------------------
 # mPW1PW91/6-311g(d) geom=checkpoint nmr=giao scrf=(solvent=chloroform
 )
 ----------------------------------------------------------------------

 -------------
 P_ng_2ginp009
 -------------
 Structure from the checkpoint file:  "/home/ke291/rds/hpc-work/06Feb0927IP1/P_ng_2ginp009.chk"
 Charge =  0 Multiplicity = 1

                         Standard orientation:
 ---------------------------------------------------------------------
 Center     Atomic      Atomic             Coordinates (Angstroms)
 Number     Number       Type             X           Y           Z
 ---------------------------------------------------------------------
      1          6           0       -2.444667   -0.302925   -0.444286
      2          6           0       -1.005550   -0.791929   -0.684963
      3          6           0        0.043832    0.295685   -0.313330
      4          6           0       -0.195960    0.641169    1.164423
      5          6           0       -1.619736    1.046728    1.488545
      6          1           0       -2.736919    0.359511   -1.269308
      7          1           0       -0.810568   -1.626223    0.002847
      8          1           0        0.012487   -0.245067    1.776573
      9          1           0        0.459573    1.436539    1.520254
     10          8           0       -2.618541    0.512716    0.758852
     11          8           0       -1.898323    1.788988    2.407159
     12          6           0       -3.467266   -1.436129   -0.328119
     13          6           0       -4.915295   -0.951926   -0.208485
     14          6           0       -0.849445   -1.319212   -2.120073
     15          8           0        1.341938   -0.238066   -0.528578
     16         14           0        2.578202   -0.919928    0.381976
     17          6           0        3.323104    0.322325    1.590844
     18          6           0        2.004141   -2.460002    1.314268
     19          6           0        3.855109   -1.401520   -0.912188
     20          1           0        2.863600   -2.942206    1.794979
     21          1           0        1.277259   -2.237268    2.102503
     22          1           0        1.551935   -3.191651    0.636196
     23          1           0        4.735704   -1.854669   -0.443279
     24          1           0        3.443614   -2.126140   -1.622533
     25          1           0        4.190060   -0.527520   -1.480089
     26          1           0        4.245866   -0.082773    2.022559
     27          1           0        3.575002    1.257899    1.081172
     28          1           0        2.650369    0.560621    2.420771
     29          1           0        0.203008   -1.523015   -2.326381
     30          1           0       -1.407077   -2.247943   -2.263929
     31          1           0       -1.209400   -0.598665   -2.861791
     32          1           0       -3.199235   -2.050010    0.540950
     33          1           0       -3.368336   -2.077244   -1.210365
     34          1           0       -5.050249   -0.325314    0.676456
     35          1           0       -5.208744   -0.364743   -1.085873
     36          1           0       -5.599941   -1.801949   -0.132310
     37          6           0       -0.074379    1.552436   -1.221637
     38          6           0        0.858630    2.680669   -0.872337
     39          6           0        1.884944    3.076308   -1.626933
     40          1           0       -1.107595    1.921907   -1.180045
     41          1           0        0.113662    1.234650   -2.250980
     42          1           0        0.653142    3.217498    0.053501
     43          1           0        2.518053    3.909894   -1.337007
     44          1           0        2.124516    2.583683   -2.566371
 ---------------------------------------------------------------------

 SCF Done:  E(RmPW1PW91) =  -1064.38329663     A.U. after   12 cycles

      1  C    Isotropic =    99.5740   Anisotropy =    50.4091

      2  C    Isotropic =   138.7026   Anisotropy =    24.7654

      3  C    Isotropic =   108.1081   Anisotropy =    50.4090

      4  C    Isotropic =   143.3287   Anisotropy =    32.3978

      5  C    Isotropic =    13.7766   Anisotropy =    86.3734

      6  H    Isotropic =    28.1513   Anisotropy =     2.0665

      7  H    Isotropic =    30.3318   Anisotropy =     3.7634

      8  H    Isotropic =    29.7398   Anisotropy =     5.0632

      9  H    Isotropic =    29.2584   Anisotropy =     4.0777

     10  O    Isotropic =   100.7296   Anisotropy =   190.8464

     11  O    Isotropic =  -105.5301   Anisotropy =   556.0355

     12  C    Isotropic =   155.8840   Anisotropy =    25.1915

     13  C    Isotropic =   175.6625   Anisotropy =    21.9972

     14  C    Isotropic =   176.4376   Anisotropy =    20.1408

     15  O    Isotropic =   246.7736   Anisotropy =    24.0833

     16  Si   Isotropic =   334.2174   Anisotropy =    40.5889

     17  C    Isotropic =   185.2471   Anisotropy =    12.2051

     18  C    Isotropic =   185.7274   Anisotropy =    10.9887

     19  C    Isotropic =   187.0361   Anisotropy =    12.1733

     20  H    Isotropic =    32.2245   Anisotropy =    10.5385

     21  H    Isotropic =    32.0445   Anisotropy =     6.5019

     22  H    Isotropic =    32.0020   Anisotropy =     7.4575

     23  H    Isotropic =    32.4208   Anisotropy =    10.3865

     24  H    Isotropic =    31.9891   Anisotropy =     8.1801

     25  H    Isotropic =    31.9335   Anisotropy =     8.2917

     26  H    Isotropic =    32.3017   Anisotropy =    10.5248

     27  H    Isotropic =    31.8733   Anisotropy =     7.7613

     28  H    Isotropic =    31.9971   Anisotropy =     6.5994

     29  H    Isotropic =    30.4482   Anisotropy =     7.3171

     30  H    Isotropic =    31.2401   Anisotropy =     9.6007

     31  H    Isotropic =    31.5081   Anisotropy =     8.4855

     32  H    Isotropic =    30.6104   Anisotropy =     5.0231

     33  H    Isotropic =    30.3200   Anisotropy =     5.6504

     34  H    Isotropic =    30.5139   Anisotropy =     7.8717

     35  H    Isotropic =    31.1943   Anisotropy =     9.2462

     36  H    Isotropic =    31.0082   Anisotropy =    11.3871

     37  C    Isotropic =   146.6038   Anisotropy =    15.5844

     38  C    Isotropic =    47.0670   Anisotropy =   176.6609

     39  C    Isotropic =    63.3709   Anisotropy =   143.1349

     40  H    Isotropic =    30.0280   Anisotropy =     5.3508

     41  H    Isotropic =    29.8122   Anisotropy =     5.0041

     42  H    Isotropic =    25.8474   Anisotropy =     5.9502

     43  H    Isotropic =    26.6403   Anisotropy =     6.3297

     44  H    Isotropic =    26.7045   Anisotropy =     7.1987

 The electronic state is 1-A.
 Alpha  occ. eigenvalues --  -66.27364 -19.26009 -19.20523 -19.19707 -10.37131
 Alpha  occ. eigenvalues --  -10.31826 -10.30731 -10.25447 -10.25328 -10.24095
 Alpha  occ. eigenvalues --  -10.24059 -10.23919 -10.22745 -10.22730 -10.22106
 Alpha  occ. eigenvalues --  -10.20987 -10.20685 -10.20586  -5.33089  -3.66981
 Alpha  occ. eigenvalues --   -3.66682  -3.66669  -1.13312  -1.04913  -1.04043
 Alpha  occ. eigenvalues --   -0.85944  -0.83305  -0.80610  -0.77872  -0.74047
 Alpha  occ. eigenvalues --   -0.72482  -0.71960  -0.70295  -0.70067  -0.66595
 Alpha  occ. eigenvalues --   -0.64029  -0.62002  -0.58583  -0.56139  -0.53899
 Alpha  occ. eigenvalues --   -0.52631  -0.49751  -0.49468  -0.48186  -0.47570
 Alpha  occ. eigenvalues --   -0.47081  -0.45569  -0.44799  -0.44174  -0.43305
 Alpha  occ. eigenvalues --   -0.42631  -0.42395  -0.41941  -0.41647  -0.41342
 Alpha  occ. eigenvalues --   -0.40799  -0.40379  -0.39854  -0.39571  -0.39034
 Alpha  occ. eigenvalues --   -0.38498  -0.37916  -0.36908  -0.36515  -0.35865
 Alpha  occ. eigenvalues --   -0.35686  -0.34226  -0.33570  -0.32472  -0.31116
 Alpha  occ. eigenvalues --   -0.30607  -0.28584  -0.28329  -0.27310
 Alpha virt. eigenvalues --    0.00352   0.01075   0.03949   0.05777   0.06130
 Alpha virt. eigenvalues --    0.06343   0.07637   0.07989   0.08562   0.08742
 Alpha virt. eigenvalues --    0.09281   0.09668   0.10057   0.10766   0.11233

 Mulliken charges:
               1
     1  C   -0.029981
     2  C   -0.294121
     3  C    0.206085
     4  C   -0.672186
     5  C    0.479024
     6  H    0.244708
     7  H    0.251228
     8  H    0.281613
     9  H    0.285527
    10  O   -0.328107
    11  O   -0.382431
    12  C   -0.437344
    13  C   -0.664530
    14  C   -0.683341
    15  O   -0.634101
    16  Si   1.439324
    17  C   -1.064649
    18  C   -1.071342
    19  C   -1.041654
    20  H    0.241195
    21  H    0.245946
    22  H    0.242765
    23  H    0.231598
    24  H    0.239735
    25  H    0.241861
    26  H    0.236417
    27  H    0.246226
    28  H    0.241332
    29  H    0.261797
    30  H    0.241252
    31  H    0.231843
    32  H    0.229884
    33  H    0.241145
    34  H    0.240768
    35  H    0.223194
    36  H    0.229601
    37  C   -0.497554
    38  C   -0.173490
    39  C   -0.454629
    40  H    0.252176
    41  H    0.259451
    42  H    0.218272
    43  H    0.225366
    44  H    0.220127
 Sum of Mulliken charges =   0.00000

 Dipole moment (field-independent basis, Debye):
    X=              1.8476    Y=             -3.5468    Z=             -2.9671  Tot=              4.9796
 Quadrupole moment (field-independent basis, Debye-Ang):
   XX=           -120.4563   YY=           -121.0498   ZZ=           -125.5061
   XY=              8.2538   XZ=             12.2908   YZ=             -6.9641

 Normal termination of Gaussian 09 at Wed Feb  6 11:43:47 2019.
