 Gaussian 09, Revision D.01,
 Gaussian 09:  ES64L-G09RevD.01 24-Apr-2013

 ----------------------------------------------------------------------
 # mPW1PW91/6-311g(d) geom=checkpoint nmr=giao scrf=(solvent=chloroform
 )
 ----------------------------------------------------------------------

 -------------
 P_ng_2ginp005
 -------------
 Structure from the checkpoint file:  "/home/ke291/rds/hpc-work/06Feb0927IP1/P_ng_2ginp005.chk"
 Charge =  0 Multiplicity = 1

                         Standard orientation:
 ---------------------------------------------------------------------
 Center     Atomic      Atomic             Coordinates (Angstroms)
 Number     Number       Type             X           Y           Z
 ---------------------------------------------------------------------
      1          6           0       -2.311951   -0.038101   -0.186586
      2          6           0       -1.029159    0.034611   -1.034588
      3          6           0        0.095183    0.796286   -0.252621
      4          6           0       -0.158452    0.658320    1.277022
      5          6           0       -0.887212   -0.598778    1.683039
      6          1           0       -2.605899    0.961617    0.164414
      7          1           0       -0.681831   -1.002417   -1.104863
      8          1           0        0.773059    0.733931    1.834544
      9          1           0       -0.787857    1.496950    1.599949
     10          8           0       -2.017771   -0.858471    0.989066
     11          8           0       -0.550852   -1.344734    2.580613
     12          6           0       -3.512420   -0.696658   -0.860626
     13          6           0       -4.735100   -0.816073    0.054905
     14          6           0       -1.247351    0.538330   -2.466583
     15          8           0        1.363762    0.269225   -0.635332
     16         14           0        2.307019   -1.079669   -0.268696
     17          6           0        2.949580   -1.020913    1.503645
     18          6           0        1.387071   -2.707327   -0.533536
     19          6           0        3.733886   -0.946845   -1.486815
     20          1           0        2.082478   -3.540921   -0.377514
     21          1           0        0.559231   -2.842683    0.169740
     22          1           0        0.991812   -2.795343   -1.551090
     23          1           0        4.279747   -0.006374   -1.358815
     24          1           0        4.443934   -1.768657   -1.341755
     25          1           0        3.377299   -0.990374   -2.521138
     26          1           0        3.437344   -0.066154    1.727857
     27          1           0        2.148860   -1.180158    2.232555
     28          1           0        3.692494   -1.814129    1.649780
     29          1           0       -0.288339    0.618163   -2.985553
     30          1           0       -1.867572   -0.160897   -3.032447
     31          1           0       -1.733597    1.518423   -2.498335
     32          1           0       -3.212391   -1.687538   -1.223664
     33          1           0       -3.774270   -0.100912   -1.741100
     34          1           0       -5.571907   -1.273921   -0.480754
     35          1           0       -4.514453   -1.430151    0.931328
     36          1           0       -5.062619    0.168812    0.406628
     37          6           0        0.147418    2.305201   -0.609699
     38          6           0        1.139029    3.092482    0.201384
     39          6           0        0.843618    4.169908    0.930337
     40          1           0       -0.852278    2.741691   -0.497425
     41          1           0        0.419712    2.377982   -1.668331
     42          1           0        2.168160    2.739640    0.159256
     43          1           0        1.605658    4.710447    1.484240
     44          1           0       -0.171000    4.557523    0.993802
 ---------------------------------------------------------------------

 SCF Done:  E(RmPW1PW91) =  -1064.38481292     A.U. after   12 cycles

      1  C    Isotropic =   103.9415   Anisotropy =    46.6850

      2  C    Isotropic =   135.8325   Anisotropy =    25.8217

      3  C    Isotropic =   105.5165   Anisotropy =    54.6640

      4  C    Isotropic =   142.6727   Anisotropy =    21.2550

      5  C    Isotropic =     8.0364   Anisotropy =   101.0699

      6  H    Isotropic =    28.2973   Anisotropy =     3.5016

      7  H    Isotropic =    30.2346   Anisotropy =     7.1583

      8  H    Isotropic =    29.6691   Anisotropy =     4.3514

      9  H    Isotropic =    29.6959   Anisotropy =     5.2959

     10  O    Isotropic =    77.7815   Anisotropy =   179.6179

     11  O    Isotropic =  -105.1921   Anisotropy =   576.6639

     12  C    Isotropic =   159.0635   Anisotropy =    17.6078

     13  C    Isotropic =   176.0344   Anisotropy =    21.4783

     14  C    Isotropic =   177.2698   Anisotropy =     9.7599

     15  O    Isotropic =   239.1284   Anisotropy =    24.2245

     16  Si   Isotropic =   332.6599   Anisotropy =    41.4571

     17  C    Isotropic =   185.8449   Anisotropy =    10.8476

     18  C    Isotropic =   186.0490   Anisotropy =     8.3469

     19  C    Isotropic =   186.6179   Anisotropy =    13.2057

     20  H    Isotropic =    32.2743   Anisotropy =    10.5632

     21  H    Isotropic =    31.8820   Anisotropy =     7.2197

     22  H    Isotropic =    32.0799   Anisotropy =     7.3775

     23  H    Isotropic =    31.9140   Anisotropy =     8.6809

     24  H    Isotropic =    32.3791   Anisotropy =    10.2318

     25  H    Isotropic =    31.9825   Anisotropy =     8.3174

     26  H    Isotropic =    31.9576   Anisotropy =     8.2743

     27  H    Isotropic =    31.4334   Anisotropy =     7.5790

     28  H    Isotropic =    32.2911   Anisotropy =    10.4104

     29  H    Isotropic =    30.8284   Anisotropy =     7.6757

     30  H    Isotropic =    31.1368   Anisotropy =     9.0814

     31  H    Isotropic =    31.4118   Anisotropy =     8.4384

     32  H    Isotropic =    30.5691   Anisotropy =     5.3686

     33  H    Isotropic =    30.4989   Anisotropy =     5.9936

     34  H    Isotropic =    30.9914   Anisotropy =    11.5000

     35  H    Isotropic =    30.6252   Anisotropy =     7.8161

     36  H    Isotropic =    31.2854   Anisotropy =     9.3344

     37  C    Isotropic =   140.3772   Anisotropy =    14.1208

     38  C    Isotropic =    45.1498   Anisotropy =   180.4363

     39  C    Isotropic =    65.9553   Anisotropy =   138.8206

     40  H    Isotropic =    30.1783   Anisotropy =     6.2918

     41  H    Isotropic =    29.4955   Anisotropy =     3.7293

     42  H    Isotropic =    25.6710   Anisotropy =     7.3848

     43  H    Isotropic =    26.7334   Anisotropy =     6.8611

     44  H    Isotropic =    26.8131   Anisotropy =     7.3021

 The electronic state is 1-A.
 Alpha  occ. eigenvalues --  -66.27215 -19.26082 -19.20574 -19.20064 -10.36904
 Alpha  occ. eigenvalues --  -10.32092 -10.30665 -10.25400 -10.25158 -10.24121
 Alpha  occ. eigenvalues --  -10.24067 -10.24013 -10.23010 -10.22844 -10.22235
 Alpha  occ. eigenvalues --  -10.20680 -10.20528 -10.20389  -5.32947  -3.66840
 Alpha  occ. eigenvalues --   -3.66538  -3.66522  -1.13501  -1.05133  -1.03868
 Alpha  occ. eigenvalues --   -0.85831  -0.83272  -0.80494  -0.77874  -0.73994
 Alpha  occ. eigenvalues --   -0.72506  -0.72012  -0.70072  -0.69901  -0.66799
 Alpha  occ. eigenvalues --   -0.63120  -0.61911  -0.58616  -0.56838  -0.54662
 Alpha  occ. eigenvalues --   -0.51460  -0.51032  -0.49091  -0.48847  -0.46928
 Alpha  occ. eigenvalues --   -0.45909  -0.44963  -0.44647  -0.43820  -0.43513
 Alpha  occ. eigenvalues --   -0.43043  -0.42465  -0.42254  -0.41996  -0.40960
 Alpha  occ. eigenvalues --   -0.40611  -0.40390  -0.39645  -0.39408  -0.39306
 Alpha  occ. eigenvalues --   -0.38703  -0.38127  -0.36953  -0.36419  -0.36004
 Alpha  occ. eigenvalues --   -0.35656  -0.35321  -0.33388  -0.32388  -0.31198
 Alpha  occ. eigenvalues --   -0.30197  -0.28816  -0.28364  -0.27208
 Alpha virt. eigenvalues --    0.00185   0.01209   0.04131   0.05129   0.05940
 Alpha virt. eigenvalues --    0.06762   0.07648   0.08069   0.08490   0.08940
 Alpha virt. eigenvalues --    0.10029   0.10414   0.10550   0.10972   0.11418

 Mulliken charges:
               1
     1  C   -0.016332
     2  C   -0.326574
     3  C    0.236052
     4  C   -0.698333
     5  C    0.506783
     6  H    0.235925
     7  H    0.282197
     8  H    0.296892
     9  H    0.292493
    10  O   -0.320078
    11  O   -0.381376
    12  C   -0.457724
    13  C   -0.661830
    14  C   -0.714385
    15  O   -0.626937
    16  Si   1.411028
    17  C   -1.080356
    18  C   -1.083742
    19  C   -1.039803
    20  H    0.243839
    21  H    0.255037
    22  H    0.241744
    23  H    0.240094
    24  H    0.232099
    25  H    0.239908
    26  H    0.241123
    27  H    0.254365
    28  H    0.238870
    29  H    0.255038
    30  H    0.247335
    31  H    0.240097
    32  H    0.235075
    33  H    0.245187
    34  H    0.230841
    35  H    0.241253
    36  H    0.221863
    37  C   -0.492790
    38  C   -0.186893
    39  C   -0.449874
    40  H    0.239770
    41  H    0.261759
    42  H    0.224776
    43  H    0.227198
    44  H    0.218383
 Sum of Mulliken charges =   0.00000

 Dipole moment (field-independent basis, Debye):
    X=             -1.0743    Y=              2.6054    Z=             -3.6697  Tot=              4.6270
 Quadrupole moment (field-independent basis, Debye-Ang):
   XX=           -111.9065   YY=           -120.2112   ZZ=           -128.1467
   XY=             -6.4938   XZ=              6.4162   YZ=              9.8138

 Normal termination of Gaussian 09 at Wed Feb  6 11:22:15 2019.
