 Gaussian 09, Revision D.01,
 Gaussian 09:  ES64L-G09RevD.01 24-Apr-2013

 ----------------------------------------------------------------------
 # mPW1PW91/6-311g(d) geom=checkpoint nmr=giao scrf=(solvent=chloroform
 )
 ----------------------------------------------------------------------

 -------------
 P_ng_4ginp006
 -------------
 Structure from the checkpoint file:  "/home/ke291/rds/hpc-work/06Feb0927IP1/P_ng_4ginp006.chk"
 Charge =  0 Multiplicity = 1

                         Standard orientation:
 ---------------------------------------------------------------------
 Center     Atomic      Atomic             Coordinates (Angstroms)
 Number     Number       Type             X           Y           Z
 ---------------------------------------------------------------------
      1          6           0       -2.172252   -0.883042    0.702953
      2          6           0       -1.083003   -0.012742    1.354855
      3          6           0       -0.008582    0.464220    0.335951
      4          6           0       -0.658392    0.638171   -1.070395
      5          6           0       -2.171446    0.720810   -1.129017
      6          1           0       -2.952310   -1.052663    1.453513
      7          1           0       -1.625827    0.886130    1.670811
      8          1           0       -0.274215    1.515498   -1.592464
      9          1           0       -0.387365   -0.238439   -1.667141
     10          8           0       -2.872661   -0.087388   -0.303889
     11          8           0       -2.771631    1.424292   -1.914723
     12          6           0       -1.763620   -2.246362    0.137029
     13          6           0       -2.950852   -3.042583   -0.414490
     14          6           0       -0.498739   -0.665105    2.612632
     15          8           0        0.994191   -0.549944    0.261967
     16         14           0        2.562541   -0.635990   -0.348603
     17          6           0        2.887768   -2.484502   -0.476449
     18          6           0        2.719382    0.167957   -2.050605
     19          6           0        3.804084    0.140557    0.842233
     20          1           0        3.737396    0.019012   -2.429633
     21          1           0        2.030700   -0.277200   -2.776215
     22          1           0        2.535202    1.247067   -2.030724
     23          1           0        3.705244   -0.286182    1.846116
     24          1           0        4.826030   -0.057407    0.497937
     25          1           0        3.688495    1.225496    0.925455
     26          1           0        2.194172   -2.963763   -1.175122
     27          1           0        3.906868   -2.677140   -0.829913
     28          1           0        2.773999   -2.973350    0.496746
     29          1           0       -1.301974   -0.936000    3.305846
     30          1           0        0.073012   -1.562642    2.372480
     31          1           0        0.169051    0.023663    3.137751
     32          1           0       -1.291330   -2.808962    0.950197
     33          1           0       -0.994795   -2.127605   -0.631437
     34          1           0       -3.704489   -3.218236    0.361492
     35          1           0       -3.438205   -2.511447   -1.236798
     36          1           0       -2.622791   -4.017391   -0.787647
     37          6           0        0.640382    1.803776    0.795178
     38          6           0       -0.285716    2.986220    0.893824
     39          6           0       -0.255599    4.041198    0.077099
     40          1           0        1.437999    2.042966    0.083426
     41          1           0        1.119115    1.624028    1.765317
     42          1           0       -1.017141    2.974370    1.700952
     43          1           0       -0.945383    4.871567    0.193755
     44          1           0        0.463265    4.115372   -0.735876
 ---------------------------------------------------------------------

 SCF Done:  E(RmPW1PW91) =  -1064.38078132     A.U. after   12 cycles

      1  C    Isotropic =    99.1778   Anisotropy =    47.2618

      2  C    Isotropic =   144.2632   Anisotropy =     6.2154

      3  C    Isotropic =   106.5339   Anisotropy =    48.8767

      4  C    Isotropic =   139.9878   Anisotropy =    29.8778

      5  C    Isotropic =    12.0204   Anisotropy =    96.3870

      6  H    Isotropic =    27.8765   Anisotropy =     4.8087

      7  H    Isotropic =    30.0913   Anisotropy =     6.3767

      8  H    Isotropic =    29.4420   Anisotropy =     3.9104

      9  H    Isotropic =    29.5317   Anisotropy =     2.8190

     10  O    Isotropic =    88.2000   Anisotropy =   201.9648

     11  O    Isotropic =  -101.5277   Anisotropy =   567.7767

     12  C    Isotropic =   162.0256   Anisotropy =    10.6912

     13  C    Isotropic =   175.5196   Anisotropy =    23.0846

     14  C    Isotropic =   176.2295   Anisotropy =    16.9098

     15  O    Isotropic =   229.7146   Anisotropy =    51.1288

     16  Si   Isotropic =   333.2316   Anisotropy =    42.0116

     17  C    Isotropic =   186.5811   Anisotropy =    12.2059

     18  C    Isotropic =   186.0360   Anisotropy =     8.8011

     19  C    Isotropic =   184.7341   Anisotropy =    12.8498

     20  H    Isotropic =    32.1551   Anisotropy =    10.5598

     21  H    Isotropic =    31.8903   Anisotropy =     7.1942

     22  H    Isotropic =    31.8263   Anisotropy =     7.1564

     23  H    Isotropic =    31.9105   Anisotropy =     7.8740

     24  H    Isotropic =    32.2694   Anisotropy =    10.3701

     25  H    Isotropic =    31.9390   Anisotropy =     6.6259

     26  H    Isotropic =    32.0104   Anisotropy =     7.8673

     27  H    Isotropic =    32.3576   Anisotropy =    10.4375

     28  H    Isotropic =    31.8976   Anisotropy =     8.0060

     29  H    Isotropic =    31.3671   Anisotropy =    10.9090

     30  H    Isotropic =    30.8367   Anisotropy =     5.6932

     31  H    Isotropic =    30.9493   Anisotropy =     8.4833

     32  H    Isotropic =    30.4291   Anisotropy =     4.9716

     33  H    Isotropic =    30.1582   Anisotropy =     8.7115

     34  H    Isotropic =    31.2455   Anisotropy =    10.3331

     35  H    Isotropic =    30.7699   Anisotropy =     7.8874

     36  H    Isotropic =    30.9970   Anisotropy =    10.7799

     37  C    Isotropic =   138.4014   Anisotropy =    27.3955

     38  C    Isotropic =    48.0628   Anisotropy =   170.8814

     39  C    Isotropic =    62.2624   Anisotropy =   143.7031

     40  H    Isotropic =    30.0550   Anisotropy =     4.3830

     41  H    Isotropic =    29.3636   Anisotropy =     3.2282

     42  H    Isotropic =    26.1617   Anisotropy =     6.6964

     43  H    Isotropic =    26.7423   Anisotropy =     6.3569

     44  H    Isotropic =    26.6775   Anisotropy =     7.1926

 The electronic state is 1-A.
 Alpha  occ. eigenvalues --  -66.27443 -19.25534 -19.20577 -19.19262 -10.36505
 Alpha  occ. eigenvalues --  -10.31951 -10.30081 -10.25151 -10.24830 -10.24515
 Alpha  occ. eigenvalues --  -10.24459 -10.23484 -10.23241 -10.22592 -10.22045
 Alpha  occ. eigenvalues --  -10.21098 -10.20828 -10.20727  -5.33178  -3.67064
 Alpha  occ. eigenvalues --   -3.66775  -3.66757  -1.12898  -1.04539  -1.03868
 Alpha  occ. eigenvalues --   -0.85605  -0.82935  -0.80020  -0.78039  -0.73882
 Alpha  occ. eigenvalues --   -0.73017  -0.71716  -0.70400  -0.70158  -0.66323
 Alpha  occ. eigenvalues --   -0.63983  -0.62404  -0.58067  -0.54534  -0.53910
 Alpha  occ. eigenvalues --   -0.51689  -0.50876  -0.49538  -0.48416  -0.46975
 Alpha  occ. eigenvalues --   -0.46086  -0.45608  -0.45169  -0.43836  -0.43444
 Alpha  occ. eigenvalues --   -0.42616  -0.42527  -0.41913  -0.41725  -0.41034
 Alpha  occ. eigenvalues --   -0.40782  -0.40299  -0.39798  -0.39515  -0.39393
 Alpha  occ. eigenvalues --   -0.38363  -0.38080  -0.37525  -0.36307  -0.35555
 Alpha  occ. eigenvalues --   -0.35119  -0.34613  -0.33568  -0.32099  -0.30668
 Alpha  occ. eigenvalues --   -0.30031  -0.29704  -0.28365  -0.26890
 Alpha virt. eigenvalues --   -0.00256   0.01739   0.03731   0.05066   0.06308
 Alpha virt. eigenvalues --    0.06391   0.07276   0.07785   0.08199   0.08897
 Alpha virt. eigenvalues --    0.09112   0.10254   0.10625   0.11396   0.11422

 Mulliken charges:
               1
     1  C   -0.037109
     2  C   -0.341880
     3  C    0.271246
     4  C   -0.672454
     5  C    0.496192
     6  H    0.244423
     7  H    0.257128
     8  H    0.274119
     9  H    0.297002
    10  O   -0.323838
    11  O   -0.383503
    12  C   -0.448859
    13  C   -0.661236
    14  C   -0.662546
    15  O   -0.631447
    16  Si   1.427153
    17  C   -1.041858
    18  C   -1.071734
    19  C   -1.061929
    20  H    0.241962
    21  H    0.246720
    22  H    0.248574
    23  H    0.242131
    24  H    0.236129
    25  H    0.246027
    26  H    0.239677
    27  H    0.232602
    28  H    0.240121
    29  H    0.231358
    30  H    0.253040
    31  H    0.236617
    32  H    0.240109
    33  H    0.245995
    34  H    0.222912
    35  H    0.236473
    36  H    0.228320
    37  C   -0.553634
    38  C   -0.187892
    39  C   -0.446948
    40  H    0.248342
    41  H    0.265352
    42  H    0.222330
    43  H    0.232189
    44  H    0.222623
 Sum of Mulliken charges =   0.00000

 Dipole moment (field-independent basis, Debye):
    X=              4.5083    Y=             -1.7496    Z=              2.9312  Tot=              5.6549
 Quadrupole moment (field-independent basis, Debye-Ang):
   XX=           -129.8151   YY=           -117.8142   ZZ=           -120.2496
   XY=              7.2101   XZ=            -13.9449   YZ=              4.0295

 Normal termination of Gaussian 09 at Wed Feb  6 11:33:15 2019.
