 Gaussian 09, Revision D.01,
 Gaussian 09:  ES64L-G09RevD.01 24-Apr-2013

 ----------------------------------------------------------------------
 # mPW1PW91/6-311g(d) geom=checkpoint nmr=giao scrf=(solvent=chloroform
 )
 ----------------------------------------------------------------------

 -------------
 P_ng_2ginp003
 -------------
 Structure from the checkpoint file:  "/home/ke291/rds/hpc-work/06Feb0927IP1/P_ng_2ginp003.chk"
 Charge =  0 Multiplicity = 1

                         Standard orientation:
 ---------------------------------------------------------------------
 Center     Atomic      Atomic             Coordinates (Angstroms)
 Number     Number       Type             X           Y           Z
 ---------------------------------------------------------------------
      1          6           0       -2.401560    0.141879   -0.350119
      2          6           0       -1.005449    0.323302   -0.963346
      3          6           0        0.101423    0.039722    0.092271
      4          6           0       -0.091369   -1.429883    0.502673
      5          6           0       -1.494364   -1.778337    0.961789
      6          1           0       -2.608665    0.982993    0.324198
      7          1           0       -0.870255   -0.455399   -1.727172
      8          1           0        0.123382   -2.068892   -0.361889
      9          1           0        0.588149   -1.729736    1.304408
     10          8           0       -2.526426   -1.053705    0.487336
     11          8           0       -1.725936   -2.709556    1.704708
     12          6           0       -3.527540    0.041606   -1.381977
     13          6           0       -4.923801   -0.073971   -0.762819
     14          6           0       -0.879998    1.681826   -1.669469
     15          8           0        1.350682    0.226441   -0.564976
     16         14           0        2.920329   -0.352344   -0.365531
     17          6           0        3.064385   -2.153095   -0.913664
     18          6           0        3.934632    0.740458   -1.511650
     19          6           0        3.535022   -0.183506    1.411644
     20          1           0        3.575814    0.667822   -2.543622
     21          1           0        3.881207    1.792013   -1.211287
     22          1           0        4.988886    0.442214   -1.502306
     23          1           0        3.462791    0.848329    1.771034
     24          1           0        2.988144   -0.824764    2.110977
     25          1           0        4.590208   -0.477599    1.460315
     26          1           0        2.559767   -2.844280   -0.231447
     27          1           0        2.644140   -2.298563   -1.914605
     28          1           0        4.120532   -2.444896   -0.953107
     29          1           0       -1.489359    1.706991   -2.576672
     30          1           0       -1.188779    2.508318   -1.025193
     31          1           0        0.158685    1.846537   -1.961162
     32          1           0       -3.326224   -0.821927   -2.028440
     33          1           0       -3.485187    0.930942   -2.018859
     34          1           0       -5.687271   -0.126700   -1.544782
     35          1           0       -5.008774   -0.969220   -0.142384
     36          1           0       -5.149463    0.794822   -0.134230
     37          6           0        0.049222    0.925627    1.368554
     38          6           0        0.317053    2.395262    1.190265
     39          6           0       -0.385977    3.369590    1.770469
     40          1           0        0.814787    0.518828    2.043500
     41          1           0       -0.908442    0.783753    1.882815
     42          1           0        1.175899    2.649605    0.572061
     43          1           0       -0.122705    4.415450    1.642342
     44          1           0       -1.248506    3.157849    2.398678
 ---------------------------------------------------------------------

 SCF Done:  E(RmPW1PW91) =  -1064.38326721     A.U. after   13 cycles

      1  C    Isotropic =   100.3945   Anisotropy =    51.8325

      2  C    Isotropic =   137.5238   Anisotropy =    25.2806

      3  C    Isotropic =   108.5376   Anisotropy =    54.8581

      4  C    Isotropic =   137.1171   Anisotropy =    31.0014

      5  C    Isotropic =    13.8104   Anisotropy =    86.8512

      6  H    Isotropic =    28.0301   Anisotropy =     2.0893

      7  H    Isotropic =    30.2573   Anisotropy =     3.3870

      8  H    Isotropic =    29.5687   Anisotropy =     4.9134

      9  H    Isotropic =    29.6421   Anisotropy =     3.9544

     10  O    Isotropic =    99.5980   Anisotropy =   188.6008

     11  O    Isotropic =  -102.8725   Anisotropy =   559.6362

     12  C    Isotropic =   156.5133   Anisotropy =    24.2933

     13  C    Isotropic =   175.6882   Anisotropy =    21.5661

     14  C    Isotropic =   175.2540   Anisotropy =    15.1681

     15  O    Isotropic =   246.4493   Anisotropy =    21.3228

     16  Si   Isotropic =   332.4708   Anisotropy =    42.1934

     17  C    Isotropic =   184.7466   Anisotropy =    12.2345

     18  C    Isotropic =   186.8940   Anisotropy =    12.2073

     19  C    Isotropic =   185.6914   Anisotropy =     9.6140

     20  H    Isotropic =    31.8620   Anisotropy =     8.2773

     21  H    Isotropic =    31.8393   Anisotropy =     8.2885

     22  H    Isotropic =    32.3282   Anisotropy =    10.2846

     23  H    Isotropic =    31.8764   Anisotropy =     7.4668

     24  H    Isotropic =    31.8728   Anisotropy =     6.9027

     25  H    Isotropic =    32.1532   Anisotropy =    10.4974

     26  H    Isotropic =    31.8671   Anisotropy =     6.8777

     27  H    Isotropic =    31.9374   Anisotropy =     7.7800

     28  H    Isotropic =    32.2010   Anisotropy =    10.3334

     29  H    Isotropic =    31.3746   Anisotropy =     9.9459

     30  H    Isotropic =    31.2049   Anisotropy =     7.7432

     31  H    Isotropic =    30.4419   Anisotropy =     6.5700

     32  H    Isotropic =    30.6456   Anisotropy =     5.6381

     33  H    Isotropic =    30.2918   Anisotropy =     5.7091

     34  H    Isotropic =    31.0084   Anisotropy =    11.4614

     35  H    Isotropic =    30.5085   Anisotropy =     7.7991

     36  H    Isotropic =    31.1946   Anisotropy =     8.9966

     37  C    Isotropic =   142.9351   Anisotropy =    30.9684

     38  C    Isotropic =    43.4921   Anisotropy =   184.6025

     39  C    Isotropic =    68.6721   Anisotropy =   138.1240

     40  H    Isotropic =    29.5997   Anisotropy =     5.0600

     41  H    Isotropic =    29.6435   Anisotropy =     4.8720

     42  H    Isotropic =    25.5051   Anisotropy =     7.4556

     43  H    Isotropic =    26.9018   Anisotropy =     6.9271

     44  H    Isotropic =    26.8033   Anisotropy =     7.0436

 The electronic state is 1-A.
 Alpha  occ. eigenvalues --  -66.27511 -19.25937 -19.20829 -19.19619 -10.37072
 Alpha  occ. eigenvalues --  -10.31801 -10.30554 -10.25284 -10.25230 -10.24375
 Alpha  occ. eigenvalues --  -10.24214 -10.23773 -10.22727 -10.22177 -10.22017
 Alpha  occ. eigenvalues --  -10.21074 -10.20883 -10.20735  -5.33245  -3.67135
 Alpha  occ. eigenvalues --   -3.66836  -3.66824  -1.13228  -1.04837  -1.04160
 Alpha  occ. eigenvalues --   -0.85875  -0.83129  -0.80824  -0.77736  -0.73996
 Alpha  occ. eigenvalues --   -0.72737  -0.71689  -0.70367  -0.70224  -0.66601
 Alpha  occ. eigenvalues --   -0.63789  -0.61858  -0.58738  -0.56293  -0.53371
 Alpha  occ. eigenvalues --   -0.52361  -0.50605  -0.49029  -0.48251  -0.47192
 Alpha  occ. eigenvalues --   -0.46663  -0.45318  -0.44747  -0.44126  -0.43759
 Alpha  occ. eigenvalues --   -0.42708  -0.42565  -0.42083  -0.41532  -0.41171
 Alpha  occ. eigenvalues --   -0.40951  -0.40385  -0.40077  -0.39753  -0.38725
 Alpha  occ. eigenvalues --   -0.38526  -0.37938  -0.36992  -0.36515  -0.36030
 Alpha  occ. eigenvalues --   -0.35533  -0.34306  -0.33430  -0.32228  -0.31098
 Alpha  occ. eigenvalues --   -0.30435  -0.29538  -0.28249  -0.26869
 Alpha virt. eigenvalues --    0.00566   0.00967   0.03791   0.05777   0.05912
 Alpha virt. eigenvalues --    0.06528   0.07452   0.07805   0.08179   0.09278
 Alpha virt. eigenvalues --    0.09475   0.09979   0.10242   0.10657   0.11182

 Mulliken charges:
               1
     1  C   -0.033523
     2  C   -0.283287
     3  C    0.184803
     4  C   -0.658220
     5  C    0.483988
     6  H    0.246291
     7  H    0.241998
     8  H    0.298646
     9  H    0.265435
    10  O   -0.328779
    11  O   -0.383242
    12  C   -0.439452
    13  C   -0.663604
    14  C   -0.688215
    15  O   -0.636788
    16  Si   1.430933
    17  C   -1.064110
    18  C   -1.042419
    19  C   -1.079597
    20  H    0.241331
    21  H    0.240944
    22  H    0.233219
    23  H    0.249431
    24  H    0.246056
    25  H    0.243525
    26  H    0.245620
    27  H    0.243811
    28  H    0.238698
    29  H    0.237659
    30  H    0.243049
    31  H    0.259062
    32  H    0.228639
    33  H    0.242947
    34  H    0.229126
    35  H    0.240422
    36  H    0.222372
    37  C   -0.484359
    38  C   -0.184285
    39  C   -0.457078
    40  H    0.265069
    41  H    0.249010
    42  H    0.228176
    43  H    0.225737
    44  H    0.220965
 Sum of Mulliken charges =   0.00000

 Dipole moment (field-independent basis, Debye):
    X=              2.4567    Y=              3.0841    Z=             -2.5751  Tot=              4.7094
 Quadrupole moment (field-independent basis, Debye-Ang):
   XX=           -116.5397   YY=           -128.1002   ZZ=           -122.6250
   XY=            -11.9089   XZ=              7.8712   YZ=              8.6380

 Normal termination of Gaussian 09 at Wed Feb  6 11:31:46 2019.
