 Gaussian 09, Revision D.01,
 Gaussian 09:  EM64L-G09RevD.01 24-Apr-2013

 ----------------------------------------------------------------------
 # mPW1PW91/6-311g(d) geom=checkpoint nmr=giao scrf=(solvent=chloroform
 )
 ----------------------------------------------------------------------

 --------------------
 P_ng_correct1ginp007
 --------------------
 Structure from the checkpoint file:  "P_ng_correct1ginp007.chk"
 Charge =  0 Multiplicity = 1

                         Standard orientation:
 ---------------------------------------------------------------------
 Center     Atomic      Atomic             Coordinates (Angstroms)
 Number     Number       Type             X           Y           Z
 ---------------------------------------------------------------------
      1          6           0        2.401382    0.141586    0.350229
      2          6           0        1.005188    0.323085    0.963265
      3          6           0       -0.101476    0.039970   -0.092657
      4          6           0        0.091038   -1.429596   -0.503339
      5          6           0        1.494104   -1.778461   -0.961937
      6          1           0        2.608591    0.982648   -0.324117
      7          1           0        0.869765   -0.455821    1.726850
      8          1           0       -0.124280   -2.068795    0.360946
      9          1           0       -0.588235   -1.729002   -1.305446
     10          8           0        2.526224   -1.054107   -0.487078
     11          8           0        1.725679   -2.709838   -1.704652
     12          6           0        3.527256    0.041342    1.382199
     13          6           0        4.923558   -0.074510    0.763204
     14          6           0        0.879731    1.681423    1.669750
     15          8           0       -1.350874    0.226978    0.564145
     16         14           0       -2.920401   -0.352249    0.365523
     17          6           0       -3.934522    0.741181    1.511195
     18          6           0       -3.535471   -0.184530   -1.411600
     19          6           0       -3.064130   -2.152706    0.914619
     20          1           0       -3.465259    0.847450   -1.770961
     21          1           0       -2.987400   -0.824704   -2.110982
     22          1           0       -4.590082   -0.480719   -1.460224
     23          1           0       -2.561252   -2.844493    0.231731
     24          1           0       -2.642131   -2.298034    1.914841
     25          1           0       -4.120395   -2.443820    0.956195
     26          1           0       -3.576485    0.668153    2.543409
     27          1           0       -3.879883    1.792699    1.210913
     28          1           0       -4.989077    0.444007    1.501157
     29          1           0        1.488935    1.706303    2.577060
     30          1           0        1.188667    2.508061    1.025739
     31          1           0       -0.158993    1.846133    1.961305
     32          1           0        3.325789   -0.822046    2.028810
     33          1           0        3.484982    0.930789    2.018936
     34          1           0        5.686947   -0.127166    1.545250
     35          1           0        5.008499   -0.969885    0.142945
     36          1           0        5.149382    0.794133    0.134462
     37          6           0       -0.048861    0.926093   -1.368845
     38          6           0       -0.316103    2.395794   -1.190327
     39          6           0        0.387534    3.369928   -1.770127
     40          1           0       -0.814663    0.519685   -2.043765
     41          1           0        0.908723    0.783885   -1.883160
     42          1           0       -1.175027    2.650365   -0.572324
     43          1           0        0.124737    4.415891   -1.641861
     44          1           0        1.250143    3.157910   -2.398135
 ---------------------------------------------------------------------

 SCF Done:  E(RmPW1PW91) =  -1064.38326688     A.U. after   13 cycles

      1  C    Isotropic =   100.3972   Anisotropy =    51.8334

      2  C    Isotropic =   137.5247   Anisotropy =    25.2707

      3  C    Isotropic =   108.5394   Anisotropy =    54.8521

      4  C    Isotropic =   137.1223   Anisotropy =    31.0159

      5  C    Isotropic =    13.8081   Anisotropy =    86.8488

      6  H    Isotropic =    28.0298   Anisotropy =     2.0912

      7  H    Isotropic =    30.2572   Anisotropy =     3.3854

      8  H    Isotropic =    29.5686   Anisotropy =     4.9165

      9  H    Isotropic =    29.6420   Anisotropy =     3.9550

     10  O    Isotropic =    99.5769   Anisotropy =   188.5961

     11  O    Isotropic =  -102.8716   Anisotropy =   559.6458

     12  C    Isotropic =   156.5162   Anisotropy =    24.2895

     13  C    Isotropic =   175.6890   Anisotropy =    21.5650

     14  C    Isotropic =   175.2575   Anisotropy =    15.1614

     15  O    Isotropic =   246.4650   Anisotropy =    21.2875

     16  Si   Isotropic =   332.4875   Anisotropy =    42.1812

     17  C    Isotropic =   186.8951   Anisotropy =    12.2060

     18  C    Isotropic =   185.6920   Anisotropy =     9.6196

     19  C    Isotropic =   184.7487   Anisotropy =    12.2357

     20  H    Isotropic =    31.8766   Anisotropy =     7.4714

     21  H    Isotropic =    31.8733   Anisotropy =     6.9010

     22  H    Isotropic =    32.1534   Anisotropy =    10.4962

     23  H    Isotropic =    31.8670   Anisotropy =     6.8785

     24  H    Isotropic =    31.9376   Anisotropy =     7.7770

     25  H    Isotropic =    32.2008   Anisotropy =    10.3328

     26  H    Isotropic =    31.8619   Anisotropy =     8.2784

     27  H    Isotropic =    31.8396   Anisotropy =     8.2866

     28  H    Isotropic =    32.3279   Anisotropy =    10.2856

     29  H    Isotropic =    31.3749   Anisotropy =     9.9454

     30  H    Isotropic =    31.2046   Anisotropy =     7.7442

     31  H    Isotropic =    30.4419   Anisotropy =     6.5706

     32  H    Isotropic =    30.6456   Anisotropy =     5.6385

     33  H    Isotropic =    30.2918   Anisotropy =     5.7094

     34  H    Isotropic =    31.0085   Anisotropy =    11.4613

     35  H    Isotropic =    30.5085   Anisotropy =     7.7995

     36  H    Isotropic =    31.1946   Anisotropy =     8.9965

     37  C    Isotropic =   142.9187   Anisotropy =    30.9638

     38  C    Isotropic =    43.4898   Anisotropy =   184.6076

     39  C    Isotropic =    68.6730   Anisotropy =   138.1184

     40  H    Isotropic =    29.5997   Anisotropy =     5.0589

     41  H    Isotropic =    29.6433   Anisotropy =     4.8736

     42  H    Isotropic =    25.5050   Anisotropy =     7.4562

     43  H    Isotropic =    26.9020   Anisotropy =     6.9265

     44  H    Isotropic =    26.8034   Anisotropy =     7.0432

 The electronic state is 1-A.
 Alpha  occ. eigenvalues --  -66.27511 -19.25936 -19.20828 -19.19620 -10.37073
 Alpha  occ. eigenvalues --  -10.31801 -10.30554 -10.25285 -10.25230 -10.24374
 Alpha  occ. eigenvalues --  -10.24214 -10.23772 -10.22727 -10.22177 -10.22016
 Alpha  occ. eigenvalues --  -10.21073 -10.20883 -10.20735  -5.33245  -3.67135
 Alpha  occ. eigenvalues --   -3.66836  -3.66824  -1.13227  -1.04838  -1.04161
 Alpha  occ. eigenvalues --   -0.85874  -0.83128  -0.80823  -0.77736  -0.73996
 Alpha  occ. eigenvalues --   -0.72736  -0.71688  -0.70367  -0.70225  -0.66602
 Alpha  occ. eigenvalues --   -0.63788  -0.61858  -0.58737  -0.56294  -0.53371
 Alpha  occ. eigenvalues --   -0.52360  -0.50605  -0.49029  -0.48250  -0.47192
 Alpha  occ. eigenvalues --   -0.46663  -0.45317  -0.44748  -0.44126  -0.43759
 Alpha  occ. eigenvalues --   -0.42708  -0.42565  -0.42082  -0.41532  -0.41172
 Alpha  occ. eigenvalues --   -0.40950  -0.40385  -0.40077  -0.39753  -0.38725
 Alpha  occ. eigenvalues --   -0.38526  -0.37938  -0.36992  -0.36515  -0.36029
 Alpha  occ. eigenvalues --   -0.35533  -0.34306  -0.33431  -0.32229  -0.31098
 Alpha  occ. eigenvalues --   -0.30435  -0.29535  -0.28250  -0.26868
 Alpha virt. eigenvalues --    0.00565   0.00968   0.03791   0.05776   0.05912
 Alpha virt. eigenvalues --    0.06527   0.07453   0.07806   0.08179   0.09277
 Alpha virt. eigenvalues --    0.09477   0.09980   0.10242   0.10657   0.11181

 Mulliken charges:
               1
     1  C   -0.033486
     2  C   -0.283314
     3  C    0.184911
     4  C   -0.658288
     5  C    0.484005
     6  H    0.246296
     7  H    0.241985
     8  H    0.298675
     9  H    0.265438
    10  O   -0.328809
    11  O   -0.383231
    12  C   -0.439473
    13  C   -0.663598
    14  C   -0.688230
    15  O   -0.636828
    16  Si   1.431013
    17  C   -1.042417
    18  C   -1.079545
    19  C   -1.064156
    20  H    0.249394
    21  H    0.246048
    22  H    0.243494
    23  H    0.245605
    24  H    0.243819
    25  H    0.238710
    26  H    0.241327
    27  H    0.240953
    28  H    0.233220
    29  H    0.237658
    30  H    0.243050
    31  H    0.259065
    32  H    0.228635
    33  H    0.242950
    34  H    0.229125
    35  H    0.240420
    36  H    0.222369
    37  C   -0.484318
    38  C   -0.184259
    39  C   -0.457086
    40  H    0.265039
    41  H    0.248982
    42  H    0.228154
    43  H    0.225735
    44  H    0.220962
 Sum of Mulliken charges =   0.00000

 Dipole moment (field-independent basis, Debye):
    X=             -2.4571    Y=              3.0837    Z=              2.5756  Tot=              4.7095
 Quadrupole moment (field-independent basis, Debye-Ang):
   XX=           -116.5394   YY=           -128.1052   ZZ=           -122.6216
   XY=             11.9116   XZ=              7.8655   YZ=             -8.6366

 Normal termination of Gaussian 09 at Thu Feb  7 12:27:57 2019.
