 Gaussian 09, Revision D.01,
 Gaussian 09:  ES64L-G09RevD.01 24-Apr-2013

 ----------------------------------------------------------------------
 # mPW1PW91/6-311g(d) geom=checkpoint nmr=giao scrf=(solvent=chloroform
 )
 ----------------------------------------------------------------------

 -------------
 P_ng_4ginp008
 -------------
 Structure from the checkpoint file:  "/home/ke291/rds/hpc-work/06Feb0927IP1/P_ng_4ginp008.chk"
 Charge =  0 Multiplicity = 1

                         Standard orientation:
 ---------------------------------------------------------------------
 Center     Atomic      Atomic             Coordinates (Angstroms)
 Number     Number       Type             X           Y           Z
 ---------------------------------------------------------------------
      1          6           0       -2.536429    0.143332   -0.044119
      2          6           0       -1.226891    0.349166    0.732484
      3          6           0       -0.021600    0.026633   -0.198490
      4          6           0       -0.154601   -1.446205   -0.624031
      5          6           0       -1.538015   -1.875365   -1.086515
      6          1           0       -2.576402    0.855248   -0.876824
      7          1           0       -1.166515    1.414913    0.976289
      8          1           0        0.545959   -1.708849   -1.421238
      9          1           0        0.084112   -2.088475    0.230462
     10          8           0       -2.616328   -1.185411   -0.655183
     11          8           0       -1.712381   -2.864703   -1.766909
     12          6           0       -3.830045    0.296182    0.756391
     13          6           0       -4.045087    1.713124    1.298104
     14          6           0       -1.183618   -0.435131    2.054819
     15          8           0        1.160536    0.250101    0.559397
     16         14           0        2.763214   -0.255568    0.487123
     17          6           0        2.941606   -2.025101    1.120968
     18          6           0        3.496161   -0.147011   -1.249441
     19          6           0        3.653295    0.931804    1.641990
     20          1           0        4.554561   -0.431839   -1.215406
     21          1           0        3.003423   -0.818985   -1.960221
     22          1           0        3.439955    0.870647   -1.648107
     23          1           0        3.247247    0.873793    2.657302
     24          1           0        4.722522    0.698523    1.695379
     25          1           0        3.549931    1.966044    1.298359
     26          1           0        2.490872   -2.758734    0.444825
     27          1           0        4.003369   -2.280206    1.219503
     28          1           0        2.479511   -2.145305    2.106624
     29          1           0       -1.889531   -0.015431    2.776146
     30          1           0       -1.442296   -1.490376    1.922462
     31          1           0       -0.185498   -0.377209    2.490777
     32          1           0       -3.846096   -0.433458    1.572475
     33          1           0       -4.654631    0.030237    0.086037
     34          1           0       -5.017872    1.786958    1.792440
     35          1           0       -3.281921    1.995565    2.030162
     36          1           0       -4.026373    2.455202    0.492104
     37          6           0        0.019455    0.921518   -1.471943
     38          6           0        0.095226    2.404399   -1.231412
     39          6           0        1.060818    3.199403   -1.694787
     40          1           0       -0.862886    0.698297   -2.087006
     41          1           0        0.882500    0.606559   -2.066674
     42          1           0       -0.718258    2.854057   -0.662925
     43          1           0        1.054008    4.270052   -1.512811
     44          1           0        1.889053    2.810335   -2.282405
 ---------------------------------------------------------------------

 SCF Done:  E(RmPW1PW91) =  -1064.38203665     A.U. after   12 cycles

      1  C    Isotropic =   103.8295   Anisotropy =    60.4330

      2  C    Isotropic =   149.4770   Anisotropy =    17.8653

      3  C    Isotropic =   107.1003   Anisotropy =    51.0068

      4  C    Isotropic =   143.4986   Anisotropy =    37.0680

      5  C    Isotropic =    13.1574   Anisotropy =    87.8997

      6  H    Isotropic =    27.6728   Anisotropy =     3.0885

      7  H    Isotropic =    29.8967   Anisotropy =     4.7661

      8  H    Isotropic =    29.7867   Anisotropy =     3.9873

      9  H    Isotropic =    29.3739   Anisotropy =     4.0905

     10  O    Isotropic =   103.5003   Anisotropy =   179.0367

     11  O    Isotropic =  -106.6486   Anisotropy =   570.6115

     12  C    Isotropic =   159.5942   Anisotropy =    24.6891

     13  C    Isotropic =   178.0728   Anisotropy =    17.5357

     14  C    Isotropic =   181.2476   Anisotropy =    11.9184

     15  O    Isotropic =   244.8287   Anisotropy =    28.1935

     16  Si   Isotropic =   333.5193   Anisotropy =    42.6574

     17  C    Isotropic =   185.2166   Anisotropy =    12.0446

     18  C    Isotropic =   184.9201   Anisotropy =     8.9152

     19  C    Isotropic =   187.1515   Anisotropy =    12.1913

     20  H    Isotropic =    32.1493   Anisotropy =    10.5078

     21  H    Isotropic =    31.8239   Anisotropy =     6.3806

     22  H    Isotropic =    31.7929   Anisotropy =     8.0019

     23  H    Isotropic =    31.9887   Anisotropy =     8.3831

     24  H    Isotropic =    32.4228   Anisotropy =    10.3772

     25  H    Isotropic =    31.9800   Anisotropy =     8.1199

     26  H    Isotropic =    31.9484   Anisotropy =     6.6059

     27  H    Isotropic =    32.2569   Anisotropy =    10.4613

     28  H    Isotropic =    31.9265   Anisotropy =     7.6767

     29  H    Isotropic =    31.1693   Anisotropy =     9.9472

     30  H    Isotropic =    31.4640   Anisotropy =     7.5051

     31  H    Isotropic =    30.7446   Anisotropy =     8.2660

     32  H    Isotropic =    30.2957   Anisotropy =     5.0822

     33  H    Isotropic =    30.1451   Anisotropy =     9.0071

     34  H    Isotropic =    30.9293   Anisotropy =    11.9275

     35  H    Isotropic =    31.2007   Anisotropy =     6.2068

     36  H    Isotropic =    31.2457   Anisotropy =     8.8882

     37  C    Isotropic =   141.8812   Anisotropy =    34.3226

     38  C    Isotropic =    47.6832   Anisotropy =   176.5328

     39  C    Isotropic =    64.4744   Anisotropy =   141.9227

     40  H    Isotropic =    29.5673   Anisotropy =     4.8919

     41  H    Isotropic =    29.7471   Anisotropy =     4.0213

     42  H    Isotropic =    25.8776   Anisotropy =     7.3625

     43  H    Isotropic =    26.6823   Anisotropy =     6.4868

     44  H    Isotropic =    26.6997   Anisotropy =     6.4608

 The electronic state is 1-A.
 Alpha  occ. eigenvalues --  -66.27355 -19.25985 -19.20596 -19.19718 -10.37125
 Alpha  occ. eigenvalues --  -10.31828 -10.30575 -10.25303 -10.25248 -10.24423
 Alpha  occ. eigenvalues --  -10.24394 -10.23823 -10.22994 -10.22798 -10.22422
 Alpha  occ. eigenvalues --  -10.21008 -10.20768 -10.20570  -5.33089  -3.66977
 Alpha  occ. eigenvalues --   -3.66683  -3.66669  -1.13221  -1.04906  -1.04032
 Alpha  occ. eigenvalues --   -0.86022  -0.83151  -0.80961  -0.77421  -0.74045
 Alpha  occ. eigenvalues --   -0.73403  -0.71746  -0.70300  -0.70096  -0.67033
 Alpha  occ. eigenvalues --   -0.63456  -0.62124  -0.58612  -0.54715  -0.53404
 Alpha  occ. eigenvalues --   -0.53197  -0.51572  -0.50652  -0.48157  -0.47264
 Alpha  occ. eigenvalues --   -0.46640  -0.45572  -0.44824  -0.44255  -0.43435
 Alpha  occ. eigenvalues --   -0.42539  -0.42465  -0.42192  -0.42016  -0.40757
 Alpha  occ. eigenvalues --   -0.40704  -0.40322  -0.39788  -0.39656  -0.39205
 Alpha  occ. eigenvalues --   -0.38651  -0.37862  -0.37183  -0.36970  -0.36238
 Alpha  occ. eigenvalues --   -0.35612  -0.34206  -0.33409  -0.32160  -0.31149
 Alpha  occ. eigenvalues --   -0.30378  -0.29467  -0.28184  -0.27342
 Alpha virt. eigenvalues --    0.00009   0.01248   0.03804   0.04799   0.06449
 Alpha virt. eigenvalues --    0.06827   0.07250   0.07513   0.08296   0.08737
 Alpha virt. eigenvalues --    0.08931   0.09881   0.10762   0.10988   0.11880

 Mulliken charges:
               1
     1  C   -0.034022
     2  C   -0.333097
     3  C    0.233151
     4  C   -0.665654
     5  C    0.477007
     6  H    0.254551
     7  H    0.262965
     8  H    0.269235
     9  H    0.306741
    10  O   -0.324447
    11  O   -0.380162
    12  C   -0.460985
    13  C   -0.676660
    14  C   -0.689500
    15  O   -0.635953
    16  Si   1.439752
    17  C   -1.069714
    18  C   -1.085466
    19  C   -1.041101
    20  H    0.242132
    21  H    0.244215
    22  H    0.250882
    23  H    0.240161
    24  H    0.231666
    25  H    0.242863
    26  H    0.243400
    27  H    0.239227
    28  H    0.243798
    29  H    0.243634
    30  H    0.231862
    31  H    0.266403
    32  H    0.242174
    33  H    0.243171
    34  H    0.239107
    35  H    0.233366
    36  H    0.230236
    37  C   -0.527942
    38  C   -0.148527
    39  C   -0.465712
    40  H    0.256779
    41  H    0.260988
    42  H    0.216966
    43  H    0.226546
    44  H    0.225964
 Sum of Mulliken charges =   0.00000

 Dipole moment (field-independent basis, Debye):
    X=              1.8155    Y=              3.7026    Z=              2.1987  Tot=              4.6733
 Quadrupole moment (field-independent basis, Debye-Ang):
   XX=           -114.6852   YY=           -129.8094   ZZ=           -122.8706
   XY=            -13.3892   XZ=             -9.1214   YZ=             -9.0279

 Normal termination of Gaussian 09 at Wed Feb  6 11:18:17 2019.
