 Gaussian 09, Revision D.01,
 Gaussian 09:  ES64L-G09RevD.01 24-Apr-2013

 ----------------------------------------------------------------------
 # mPW1PW91/6-311g(d) geom=checkpoint nmr=giao scrf=(solvent=chloroform
 )
 ----------------------------------------------------------------------

 -------------
 P_ng_4ginp003
 -------------
 Structure from the checkpoint file:  "/home/ke291/rds/hpc-work/06Feb0927IP1/P_ng_4ginp003.chk"
 Charge =  0 Multiplicity = 1

                         Standard orientation:
 ---------------------------------------------------------------------
 Center     Atomic      Atomic             Coordinates (Angstroms)
 Number     Number       Type             X           Y           Z
 ---------------------------------------------------------------------
      1          6           0       -2.358478    0.222846    0.286580
      2          6           0       -0.990035    0.244894    0.981522
      3          6           0        0.119503   -0.008209   -0.076645
      4          6           0       -0.139176   -1.386923   -0.709060
      5          6           0       -1.582536   -1.695998   -1.076372
      6          1           0       -2.398606    1.039243   -0.442925
      7          1           0       -0.853182    1.268110    1.350643
      8          1           0        0.459337   -1.543927   -1.609040
      9          1           0        0.160526   -2.163428    0.003845
     10          8           0       -2.576852   -1.007795   -0.477223
     11          8           0       -1.871801   -2.594010   -1.839872
     12          6           0       -3.563114    0.361845    1.215796
     13          6           0       -4.887882    0.537623    0.467010
     14          6           0       -0.902851   -0.714386    2.179864
     15          8           0        1.362878   -0.005940    0.620013
     16         14           0        2.989446   -0.183557    0.221806
     17          6           0        3.284719   -1.493671   -1.104974
     18          6           0        3.731258    1.454820   -0.350866
     19          6           0        3.792162   -0.709738    1.839758
     20          1           0        4.808882    1.336155   -0.514509
     21          1           0        3.293049    1.808939   -1.289403
     22          1           0        3.596376    2.239674    0.400966
     23          1           0        4.877684   -0.804470    1.724515
     24          1           0        3.602528    0.023210    2.630892
     25          1           0        3.405037   -1.676340    2.178615
     26          1           0        4.364045   -1.623632   -1.247988
     27          1           0        2.869755   -2.465819   -0.820593
     28          1           0        2.860967   -1.214522   -2.075291
     29          1           0       -1.545782   -0.372859    2.994949
     30          1           0       -1.215294   -1.731065    1.920573
     31          1           0        0.121547   -0.755330    2.552101
     32          1           0       -3.382074    1.229038    1.862903
     33          1           0       -3.616461   -0.516147    1.867808
     34          1           0       -5.720578    0.633424    1.170192
     35          1           0       -4.872867    1.437384   -0.158268
     36          1           0       -5.087997   -0.319486   -0.181352
     37          6           0        0.135396    1.079321   -1.187921
     38          6           0        0.221855    2.494325   -0.685473
     39          6           0       -0.581632    3.487825   -1.069800
     40          1           0       -0.739182    0.970998   -1.838987
     41          1           0        1.004025    0.858679   -1.823353
     42          1           0        1.011723    2.697563    0.035349
     43          1           0       -0.463688    4.496765   -0.685541
     44          1           0       -1.380955    3.332150   -1.791236
 ---------------------------------------------------------------------

 SCF Done:  E(RmPW1PW91) =  -1064.38459460     A.U. after   12 cycles

      1  C    Isotropic =   104.4658   Anisotropy =    47.9052

      2  C    Isotropic =   145.4678   Anisotropy =    21.1684

      3  C    Isotropic =   108.1527   Anisotropy =    55.5018

      4  C    Isotropic =   143.6258   Anisotropy =    39.4118

      5  C    Isotropic =    13.0408   Anisotropy =    88.3877

      6  H    Isotropic =    27.9594   Anisotropy =     4.1588

      7  H    Isotropic =    30.2483   Anisotropy =     5.4689

      8  H    Isotropic =    29.6522   Anisotropy =     4.1903

      9  H    Isotropic =    29.5715   Anisotropy =     3.9547

     10  O    Isotropic =   110.6693   Anisotropy =   192.5406

     11  O    Isotropic =  -103.9811   Anisotropy =   567.6972

     12  C    Isotropic =   157.7874   Anisotropy =    19.9884

     13  C    Isotropic =   175.1997   Anisotropy =    22.7071

     14  C    Isotropic =   180.1620   Anisotropy =    12.7783

     15  O    Isotropic =   245.4335   Anisotropy =    13.0474

     16  Si   Isotropic =   332.5405   Anisotropy =    43.7246

     17  C    Isotropic =   185.4526   Anisotropy =     8.3358

     18  C    Isotropic =   185.2124   Anisotropy =    10.6868

     19  C    Isotropic =   186.6438   Anisotropy =    12.3812

     20  H    Isotropic =    32.2129   Anisotropy =    10.2837

     21  H    Isotropic =    31.8874   Anisotropy =     6.4616

     22  H    Isotropic =    31.8628   Anisotropy =     8.0350

     23  H    Isotropic =    32.3338   Anisotropy =    10.3413

     24  H    Isotropic =    31.8816   Anisotropy =     8.2702

     25  H    Isotropic =    31.9457   Anisotropy =     7.9772

     26  H    Isotropic =    32.1546   Anisotropy =    10.5297

     27  H    Isotropic =    31.8718   Anisotropy =     7.2904

     28  H    Isotropic =    31.8619   Anisotropy =     6.4774

     29  H    Isotropic =    31.2231   Anisotropy =    10.0135

     30  H    Isotropic =    31.4601   Anisotropy =     7.4563

     31  H    Isotropic =    30.7159   Anisotropy =     8.5713

     32  H    Isotropic =    30.7734   Anisotropy =     6.6824

     33  H    Isotropic =    30.3468   Anisotropy =     4.6202

     34  H    Isotropic =    31.0021   Anisotropy =    11.5546

     35  H    Isotropic =    31.2174   Anisotropy =     8.7645

     36  H    Isotropic =    30.6149   Anisotropy =     8.0602

     37  C    Isotropic =   140.1800   Anisotropy =    34.2627

     38  C    Isotropic =    46.7391   Anisotropy =   179.0419

     39  C    Isotropic =    65.2281   Anisotropy =   141.7192

     40  H    Isotropic =    29.6151   Anisotropy =     5.0462

     41  H    Isotropic =    29.5696   Anisotropy =     4.3145

     42  H    Isotropic =    25.7949   Anisotropy =     6.6517

     43  H    Isotropic =    26.7059   Anisotropy =     6.8585

     44  H    Isotropic =    26.7486   Anisotropy =     7.1317

 The electronic state is 1-A.
 Alpha  occ. eigenvalues --  -66.27487 -19.25849 -19.20719 -19.19544 -10.36965
 Alpha  occ. eigenvalues --  -10.31755 -10.30281 -10.25066 -10.25004 -10.24652
 Alpha  occ. eigenvalues --  -10.24488 -10.23718 -10.23185 -10.22196 -10.22055
 Alpha  occ. eigenvalues --  -10.21062 -10.20861 -10.20692  -5.33218  -3.67106
 Alpha  occ. eigenvalues --   -3.66812  -3.66795  -1.13100  -1.04755  -1.04047
 Alpha  occ. eigenvalues --   -0.85942  -0.83008  -0.80984  -0.77372  -0.74003
 Alpha  occ. eigenvalues --   -0.73282  -0.71357  -0.70378  -0.70176  -0.66638
 Alpha  occ. eigenvalues --   -0.63729  -0.62383  -0.58866  -0.54470  -0.52891
 Alpha  occ. eigenvalues --   -0.52702  -0.51352  -0.50456  -0.47958  -0.47226
 Alpha  occ. eigenvalues --   -0.46487  -0.45212  -0.44794  -0.44376  -0.43994
 Alpha  occ. eigenvalues --   -0.42884  -0.42714  -0.42006  -0.41489  -0.40953
 Alpha  occ. eigenvalues --   -0.40745  -0.40292  -0.39825  -0.39657  -0.38617
 Alpha  occ. eigenvalues --   -0.38327  -0.37935  -0.37035  -0.36678  -0.36408
 Alpha  occ. eigenvalues --   -0.35502  -0.34318  -0.33378  -0.32159  -0.30963
 Alpha  occ. eigenvalues --   -0.30111  -0.29708  -0.28212  -0.27365
 Alpha virt. eigenvalues --    0.00318   0.00742   0.03819   0.05596   0.06375
 Alpha virt. eigenvalues --    0.06474   0.07210   0.08025   0.08378   0.09245
 Alpha virt. eigenvalues --    0.09341   0.10175   0.10253   0.10967   0.11111

 Mulliken charges:
               1
     1  C   -0.048241
     2  C   -0.304758
     3  C    0.213230
     4  C   -0.632685
     5  C    0.479631
     6  H    0.258083
     7  H    0.255274
     8  H    0.276619
     9  H    0.293958
    10  O   -0.325016
    11  O   -0.382735
    12  C   -0.454366
    13  C   -0.664776
    14  C   -0.680454
    15  O   -0.631780
    16  Si   1.405258
    17  C   -1.075341
    18  C   -1.065913
    19  C   -1.038372
    20  H    0.239082
    21  H    0.248741
    22  H    0.244674
    23  H    0.232426
    24  H    0.241209
    25  H    0.239458
    26  H    0.244192
    27  H    0.250048
    28  H    0.246630
    29  H    0.241825
    30  H    0.229873
    31  H    0.263958
    32  H    0.236743
    33  H    0.242902
    34  H    0.229953
    35  H    0.222391
    36  H    0.239081
    37  C   -0.533787
    38  C   -0.175683
    39  C   -0.452896
    40  H    0.250856
    41  H    0.257159
    42  H    0.231049
    43  H    0.229063
    44  H    0.223437
 Sum of Mulliken charges =   0.00000

 Dipole moment (field-independent basis, Debye):
    X=              2.7355    Y=              3.6950    Z=              2.1785  Tot=              5.0875
 Quadrupole moment (field-independent basis, Debye-Ang):
   XX=           -117.7959   YY=           -126.4109   ZZ=           -123.1143
   XY=            -12.1632   XZ=             -8.7802   YZ=             -7.5569

 Normal termination of Gaussian 09 at Wed Feb  6 11:31:45 2019.
