 Gaussian 09, Revision D.01,
 Gaussian 09:  ES64L-G09RevD.01 24-Apr-2013

 ----------------------------------------------------------------------
 # mPW1PW91/6-311g(d) geom=checkpoint nmr=giao scrf=(solvent=chloroform
 )
 ----------------------------------------------------------------------

 -------------
 P_ng_3ginp004
 -------------
 Structure from the checkpoint file:  "/home/ke291/rds/hpc-work/06Feb0927IP1/P_ng_3ginp004.chk"
 Charge =  0 Multiplicity = 1

                         Standard orientation:
 ---------------------------------------------------------------------
 Center     Atomic      Atomic             Coordinates (Angstroms)
 Number     Number       Type             X           Y           Z
 ---------------------------------------------------------------------
      1          6           0        2.443277    0.007076    0.030721
      2          6           0        1.130563    0.255321    0.786170
      3          6           0       -0.062517   -0.102815   -0.142973
      4          6           0        0.064678   -1.588958   -0.521998
      5          6           0        1.459300   -2.070657   -0.892150
      6          1           0        2.478759    0.664389   -0.845076
      7          1           0        1.075275    1.334530    0.966641
      8          1           0       -0.245581   -2.197831    0.334513
      9          1           0       -0.594638   -1.860444   -1.349500
     10          8           0        2.533115   -1.360193   -0.487533
     11          8           0        1.640034   -3.115891   -1.482165
     12          6           0        3.732116    0.219389    0.825201
     13          6           0        3.928137    1.665741    1.291150
     14          6           0        1.070117   -0.464524    2.143344
     15          8           0       -1.251789    0.118179    0.611482
     16         14           0       -2.908920   -0.009015    0.338908
     17          6           0       -3.585327    1.560087   -0.462626
     18          6           0       -3.369937   -1.498294   -0.726414
     19          6           0       -3.633983   -0.194344    2.064489
     20          1           0       -4.462336   -1.569090   -0.789655
     21          1           0       -2.991193   -1.418438   -1.750790
     22          1           0       -3.002699   -2.437737   -0.301320
     23          1           0       -3.351391    0.649772    2.702272
     24          1           0       -4.728345   -0.233421    2.027256
     25          1           0       -3.281278   -1.111599    2.547413
     26          1           0       -4.677779    1.498628   -0.533233
     27          1           0       -3.343078    2.447627    0.131685
     28          1           0       -3.199476    1.718234   -1.474673
     29          1           0        0.071703   -0.370773    2.572086
     30          1           0        1.309793   -1.529347    2.059635
     31          1           0        1.782437   -0.025014    2.846537
     32          1           0        4.562380   -0.072368    0.172619
     33          1           0        3.754518   -0.465418    1.679353
     34          1           0        4.905200    1.781663    1.768850
     35          1           0        3.884033    2.365467    0.449434
     36          1           0        3.168350    1.970852    2.017500
     37          6           0       -0.086865    0.763008   -1.434046
     38          6           0       -0.043134    2.248580   -1.202445
     39          6           0        0.787318    3.089945   -1.821335
     40          1           0       -1.011563    0.500216   -1.966201
     41          1           0        0.729208    0.468986   -2.103319
     42          1           0       -0.759089    2.641637   -0.482823
     43          1           0        0.763437    4.158497   -1.628716
     44          1           0        1.514895    2.743102   -2.551992
 ---------------------------------------------------------------------

 SCF Done:  E(RmPW1PW91) =  -1064.38398449     A.U. after   12 cycles

      1  C    Isotropic =   104.9154   Anisotropy =    62.8889

      2  C    Isotropic =   148.9338   Anisotropy =    15.6203

      3  C    Isotropic =   108.0340   Anisotropy =    55.5825

      4  C    Isotropic =   143.2578   Anisotropy =    39.7580

      5  C    Isotropic =    13.0169   Anisotropy =    88.7077

      6  H    Isotropic =    27.8731   Anisotropy =     2.4761

      7  H    Isotropic =    30.1160   Anisotropy =     4.3903

      8  H    Isotropic =    29.5787   Anisotropy =     4.0223

      9  H    Isotropic =    29.6291   Anisotropy =     4.0856

     10  O    Isotropic =   104.1563   Anisotropy =   178.7371

     11  O    Isotropic =  -104.6344   Anisotropy =   568.0656

     12  C    Isotropic =   159.8207   Anisotropy =    24.4977

     13  C    Isotropic =   178.3479   Anisotropy =    16.6295

     14  C    Isotropic =   181.4946   Anisotropy =    12.5559

     15  O    Isotropic =   245.2000   Anisotropy =    13.7832

     16  Si   Isotropic =   332.6202   Anisotropy =    43.3645

     17  C    Isotropic =   185.0737   Anisotropy =    11.0523

     18  C    Isotropic =   185.3278   Anisotropy =     8.3086

     19  C    Isotropic =   186.5561   Anisotropy =    12.5619

     20  H    Isotropic =    32.1527   Anisotropy =    10.5249

     21  H    Isotropic =    31.8614   Anisotropy =     6.4820

     22  H    Isotropic =    31.8790   Anisotropy =     7.3106

     23  H    Isotropic =    31.8620   Anisotropy =     8.1691

     24  H    Isotropic =    32.3289   Anisotropy =    10.3653

     25  H    Isotropic =    31.9523   Anisotropy =     7.9980

     26  H    Isotropic =    32.2159   Anisotropy =    10.3059

     27  H    Isotropic =    31.8467   Anisotropy =     7.9206

     28  H    Isotropic =    31.8969   Anisotropy =     6.5057

     29  H    Isotropic =    30.7176   Anisotropy =     8.6282

     30  H    Isotropic =    31.5050   Anisotropy =     7.8661

     31  H    Isotropic =    31.2612   Anisotropy =     9.8784

     32  H    Isotropic =    30.2259   Anisotropy =     9.0612

     33  H    Isotropic =    30.3692   Anisotropy =     5.4848

     34  H    Isotropic =    31.0383   Anisotropy =    12.0075

     35  H    Isotropic =    31.3742   Anisotropy =     8.3556

     36  H    Isotropic =    31.3203   Anisotropy =     6.0931

     37  C    Isotropic =   140.3006   Anisotropy =    34.4128

     38  C    Isotropic =    46.7372   Anisotropy =   179.2466

     39  C    Isotropic =    65.1375   Anisotropy =   142.4430

     40  H    Isotropic =    29.5619   Anisotropy =     4.4288

     41  H    Isotropic =    29.6276   Anisotropy =     5.2134

     42  H    Isotropic =    25.7947   Anisotropy =     6.5451

     43  H    Isotropic =    26.6837   Anisotropy =     6.8118

     44  H    Isotropic =    26.7506   Anisotropy =     7.1638

 The electronic state is 1-A.
 Alpha  occ. eigenvalues --  -66.27483 -19.25847 -19.20719 -19.19527 -10.36945
 Alpha  occ. eigenvalues --  -10.31763 -10.30291 -10.25056 -10.24975 -10.24654
 Alpha  occ. eigenvalues --  -10.24485 -10.23679 -10.23178 -10.22623 -10.22233
 Alpha  occ. eigenvalues --  -10.21080 -10.20848 -10.20690  -5.33215  -3.67103
 Alpha  occ. eigenvalues --   -3.66809  -3.66793  -1.13091  -1.04738  -1.04038
 Alpha  occ. eigenvalues --   -0.85988  -0.83053  -0.80933  -0.77250  -0.74006
 Alpha  occ. eigenvalues --   -0.73418  -0.71742  -0.70388  -0.70170  -0.67025
 Alpha  occ. eigenvalues --   -0.63293  -0.61929  -0.58845  -0.54453  -0.53008
 Alpha  occ. eigenvalues --   -0.52760  -0.51424  -0.51293  -0.48085  -0.46956
 Alpha  occ. eigenvalues --   -0.46557  -0.45157  -0.44951  -0.44439  -0.43791
 Alpha  occ. eigenvalues --   -0.42860  -0.42647  -0.42044  -0.41348  -0.40912
 Alpha  occ. eigenvalues --   -0.40668  -0.40285  -0.39768  -0.39379  -0.39068
 Alpha  occ. eigenvalues --   -0.38331  -0.37931  -0.37344  -0.37077  -0.36418
 Alpha  occ. eigenvalues --   -0.35382  -0.34287  -0.33350  -0.32242  -0.31023
 Alpha  occ. eigenvalues --   -0.30121  -0.29700  -0.28203  -0.27349
 Alpha virt. eigenvalues --    0.00306   0.00703   0.03810   0.05355   0.06384
 Alpha virt. eigenvalues --    0.06513   0.07016   0.07913   0.08133   0.09163
 Alpha virt. eigenvalues --    0.09584   0.10272   0.10441   0.10962   0.11510

 Mulliken charges:
               1
     1  C   -0.030497
     2  C   -0.325006
     3  C    0.218394
     4  C   -0.634462
     5  C    0.477233
     6  H    0.256980
     7  H    0.264374
     8  H    0.294079
     9  H    0.276801
    10  O   -0.325206
    11  O   -0.382852
    12  C   -0.462924
    13  C   -0.674968
    14  C   -0.679839
    15  O   -0.631551
    16  Si   1.404869
    17  C   -1.065479
    18  C   -1.075802
    19  C   -1.038359
    20  H    0.244434
    21  H    0.247008
    22  H    0.250128
    23  H    0.241168
    24  H    0.232494
    25  H    0.239425
    26  H    0.239031
    27  H    0.244554
    28  H    0.248477
    29  H    0.264311
    30  H    0.230469
    31  H    0.241580
    32  H    0.241203
    33  H    0.240965
    34  H    0.237156
    35  H    0.230424
    36  H    0.232789
    37  C   -0.533826
    38  C   -0.177523
    39  C   -0.451907
    40  H    0.257388
    41  H    0.251417
    42  H    0.230700
    43  H    0.229100
    44  H    0.223251
 Sum of Mulliken charges =   0.00000

 Dipole moment (field-independent basis, Debye):
    X=             -2.3170    Y=              4.3336    Z=              1.5487  Tot=              5.1524
 Quadrupole moment (field-independent basis, Debye-Ang):
   XX=           -114.9340   YY=           -132.2253   ZZ=           -120.9428
   XY=             13.1987   XZ=              5.6407   YZ=             -8.0254

 Normal termination of Gaussian 09 at Wed Feb  6 11:30:08 2019.
