 Gaussian 09, Revision D.01,
 Gaussian 09:  EM64L-G09RevD.01 24-Apr-2013

 ----------------------------------------------------------------------
 # mPW1PW91/6-311g(d) geom=checkpoint nmr=giao scrf=(solvent=chloroform
 )
 ----------------------------------------------------------------------

 -------------
 P_ng_2ginp015
 -------------
 Structure from the checkpoint file:  "P_ng_2ginp015.chk"
 Charge =  0 Multiplicity = 1

                         Standard orientation:
 ---------------------------------------------------------------------
 Center     Atomic      Atomic             Coordinates (Angstroms)
 Number     Number       Type             X           Y           Z
 ---------------------------------------------------------------------
      1          6           0       -2.537355    0.116743   -0.609594
      2          6           0       -1.161507   -0.527840   -0.832643
      3          6           0       -0.013687    0.387688   -0.315336
      4          6           0       -0.284453    0.611809    1.181228
      5          6           0       -1.682089    1.100540    1.513005
      6          1           0       -2.656522    0.940735   -1.323840
      7          1           0       -1.097215   -1.432834   -0.215757
      8          1           0       -0.174155   -0.345079    1.706219
      9          1           0        0.420245    1.307639    1.637583
     10          8           0       -2.699819    0.733033    0.708736
     11          8           0       -1.927539    1.749977    2.508119
     12          6           0       -3.741459   -0.819818   -0.769899
     13          6           0       -3.755841   -2.034856    0.162513
     14          6           0       -0.998272   -0.947645   -2.300836
     15          8           0        1.217055   -0.284291   -0.538809
     16         14           0        2.413799   -1.052119    0.354970
     17          6           0        3.214218    0.101297    1.615781
     18          6           0        1.752297   -2.592726    1.226044
     19          6           0        3.673960   -1.554606   -0.947834
     20          1           0        2.581333   -3.147705    1.681159
     21          1           0        1.043336   -2.358780    2.027231
     22          1           0        1.252854   -3.264934    0.520138
     23          1           0        4.524888   -2.070894   -0.489525
     24          1           0        3.230805   -2.230424   -1.686694
     25          1           0        4.060015   -0.680180   -1.481594
     26          1           0        4.118620   -0.365104    2.023874
     27          1           0        3.505454    1.047495    1.149140
     28          1           0        2.554568    0.329047    2.459066
     29          1           0        0.029932   -1.266184   -2.482361
     30          1           0       -1.659784   -1.782780   -2.545760
     31          1           0       -1.229819   -0.128566   -2.989877
     32          1           0       -3.787468   -1.141085   -1.816101
     33          1           0       -4.638553   -0.215506   -0.595705
     34          1           0       -2.943554   -2.734732   -0.056992
     35          1           0       -3.666828   -1.726946    1.208588
     36          1           0       -4.696691   -2.582506    0.054767
     37          6           0        0.060019    1.732593   -1.092573
     38          6           0        1.136556    2.678252   -0.632525
     39          6           0        2.190586    3.039509   -1.366045
     40          1           0       -0.910730    2.239910   -1.012011
     41          1           0        0.215583    1.499526   -2.149876
     42          1           0        1.017541    3.112178    0.359961
     43          1           0        2.928767    3.744747   -0.995342
     44          1           0        2.348791    2.647244   -2.367962
 ---------------------------------------------------------------------

 SCF Done:  E(RmPW1PW91) =  -1064.38254879     A.U. after   12 cycles

      1  C    Isotropic =   101.9453   Anisotropy =    60.0981

      2  C    Isotropic =   143.5658   Anisotropy =    21.0164

      3  C    Isotropic =   108.1334   Anisotropy =    50.5255

      4  C    Isotropic =   143.3446   Anisotropy =    33.1478

      5  C    Isotropic =    12.8268   Anisotropy =    88.5174

      6  H    Isotropic =    27.8702   Anisotropy =     2.1990

      7  H    Isotropic =    30.0621   Anisotropy =     4.1792

      8  H    Isotropic =    29.6863   Anisotropy =     4.8540

      9  H    Isotropic =    29.2052   Anisotropy =     4.1683

     10  O    Isotropic =    97.5746   Anisotropy =   165.8711

     11  O    Isotropic =  -108.4611   Anisotropy =   560.5765

     12  C    Isotropic =   160.4061   Anisotropy =    20.9901

     13  C    Isotropic =   181.3497   Anisotropy =    11.4370

     14  C    Isotropic =   177.4372   Anisotropy =    18.2189

     15  O    Isotropic =   246.8876   Anisotropy =    24.7027

     16  Si   Isotropic =   334.2846   Anisotropy =    40.7119

     17  C    Isotropic =   185.1003   Anisotropy =    11.8055

     18  C    Isotropic =   185.4984   Anisotropy =    11.7053

     19  C    Isotropic =   187.0563   Anisotropy =    12.1744

     20  H    Isotropic =    32.2197   Anisotropy =    10.4945

     21  H    Isotropic =    32.0425   Anisotropy =     6.5067

     22  H    Isotropic =    31.9944   Anisotropy =     7.5375

     23  H    Isotropic =    32.4291   Anisotropy =    10.3984

     24  H    Isotropic =    31.9799   Anisotropy =     8.2095

     25  H    Isotropic =    31.9455   Anisotropy =     8.2211

     26  H    Isotropic =    32.2903   Anisotropy =    10.5196

     27  H    Isotropic =    31.8090   Anisotropy =     7.8321

     28  H    Isotropic =    31.9945   Anisotropy =     6.5448

     29  H    Isotropic =    30.4816   Anisotropy =     7.4935

     30  H    Isotropic =    31.3094   Anisotropy =     9.5701

     31  H    Isotropic =    31.5637   Anisotropy =     8.8161

     32  H    Isotropic =    30.3962   Anisotropy =     7.3379

     33  H    Isotropic =    30.1249   Anisotropy =     9.7399

     34  H    Isotropic =    31.2092   Anisotropy =     6.6296

     35  H    Isotropic =    31.1356   Anisotropy =     7.2069

     36  H    Isotropic =    31.2086   Anisotropy =    12.0293

     37  C    Isotropic =   146.5711   Anisotropy =    14.7880

     38  C    Isotropic =    46.5903   Anisotropy =   177.8281

     39  C    Isotropic =    63.5492   Anisotropy =   143.0688

     40  H    Isotropic =    30.0029   Anisotropy =     5.4752

     41  H    Isotropic =    29.8150   Anisotropy =     5.1284

     42  H    Isotropic =    25.8209   Anisotropy =     5.8643

     43  H    Isotropic =    26.6534   Anisotropy =     6.4199

     44  H    Isotropic =    26.6938   Anisotropy =     7.1387

 The electronic state is 1-A.
 Alpha  occ. eigenvalues --  -66.27346 -19.26003 -19.20488 -19.19739 -10.37132
 Alpha  occ. eigenvalues --  -10.31829 -10.30674 -10.25363 -10.25306 -10.24152
 Alpha  occ. eigenvalues --  -10.24100 -10.23916 -10.22764 -10.22708 -10.22365
 Alpha  occ. eigenvalues --  -10.20909 -10.20661 -10.20558  -5.33066  -3.66958
 Alpha  occ. eigenvalues --   -3.66657  -3.66646  -1.13290  -1.04923  -1.04015
 Alpha  occ. eigenvalues --   -0.85952  -0.83246  -0.80597  -0.77732  -0.73999
 Alpha  occ. eigenvalues --   -0.72682  -0.72122  -0.70236  -0.70044  -0.67045
 Alpha  occ. eigenvalues --   -0.62947  -0.62676  -0.58552  -0.55681  -0.54020
 Alpha  occ. eigenvalues --   -0.52665  -0.50347  -0.49449  -0.48317  -0.47369
 Alpha  occ. eigenvalues --   -0.47093  -0.45293  -0.44347  -0.44246  -0.43590
 Alpha  occ. eigenvalues --   -0.42971  -0.42396  -0.42205  -0.41591  -0.41211
 Alpha  occ. eigenvalues --   -0.40713  -0.40377  -0.39832  -0.39517  -0.39377
 Alpha  occ. eigenvalues --   -0.38426  -0.37550  -0.36879  -0.36654  -0.36118
 Alpha  occ. eigenvalues --   -0.35638  -0.34205  -0.33532  -0.32373  -0.31194
 Alpha  occ. eigenvalues --   -0.30540  -0.28486  -0.28427  -0.27295
 Alpha virt. eigenvalues --    0.00239   0.01044   0.03855   0.05550   0.05909
 Alpha virt. eigenvalues --    0.06252   0.07608   0.08325   0.08437   0.08927
 Alpha virt. eigenvalues --    0.09295   0.09666   0.10349   0.10802   0.11781

 Mulliken charges:
               1
     1  C   -0.034893
     2  C   -0.311320
     3  C    0.215378
     4  C   -0.676348
     5  C    0.479365
     6  H    0.251705
     7  H    0.260592
     8  H    0.284922
     9  H    0.283083
    10  O   -0.327868
    11  O   -0.381157
    12  C   -0.441435
    13  C   -0.680694
    14  C   -0.684862
    15  O   -0.637763
    16  Si   1.441725
    17  C   -1.067343
    18  C   -1.068918
    19  C   -1.041076
    20  H    0.240081
    21  H    0.245190
    22  H    0.242031
    23  H    0.231262
    24  H    0.239414
    25  H    0.241300
    26  H    0.236476
    27  H    0.248844
    28  H    0.240665
    29  H    0.261756
    30  H    0.243287
    31  H    0.231004
    32  H    0.240870
    33  H    0.242610
    34  H    0.228528
    35  H    0.237193
    36  H    0.235923
    37  C   -0.493866
    38  C   -0.173121
    39  C   -0.456409
    40  H    0.251120
    41  H    0.258737
    42  H    0.218377
    43  H    0.225340
    44  H    0.220296
 Sum of Mulliken charges =   0.00000

 Dipole moment (field-independent basis, Debye):
    X=              1.6439    Y=             -3.0375    Z=             -3.3636  Tot=              4.8211
 Quadrupole moment (field-independent basis, Debye-Ang):
   XX=           -119.3552   YY=           -121.5872   ZZ=           -126.1219
   XY=              7.5213   XZ=             13.3903   YZ=             -7.3783

 Normal termination of Gaussian 09 at Wed Feb  6 15:27:16 2019.
