 Gaussian 09, Revision D.01,
 Gaussian 09:  ES64L-G09RevD.01 24-Apr-2013

 ----------------------------------------------------------------------
 # mPW1PW91/6-311g(d) geom=checkpoint nmr=giao scrf=(solvent=chloroform
 )
 ----------------------------------------------------------------------

 --------------------
 P_ng_correct1ginp006
 --------------------
 Structure from the checkpoint file:  "/home/ke291/rds/hpc-work/06Feb0927IP1/P_ng_correct1ginp006.chk"
 Charge =  0 Multiplicity = 1

                         Standard orientation:
 ---------------------------------------------------------------------
 Center     Atomic      Atomic             Coordinates (Angstroms)
 Number     Number       Type             X           Y           Z
 ---------------------------------------------------------------------
      1          6           0       -2.356733    0.415705    0.118469
      2          6           0       -1.182054    0.203736   -0.853124
      3          6           0        0.126236    0.840953   -0.268684
      4          6           0        0.029576    0.887458    1.284568
      5          6           0       -0.834184   -0.187755    1.896119
      6          1           0       -2.449982    1.481178    0.370862
      7          1           0       -0.997991   -0.875664   -0.859849
      8          1           0        1.018973    0.859848    1.737118
      9          1           0       -0.422659    1.844449    1.573735
     10          8           0       -2.064883   -0.314514    1.351941
     11          8           0       -0.518626   -0.891573    2.834397
     12          6           0       -3.728324   -0.087456   -0.337063
     13          6           0       -3.801644   -1.582960   -0.662666
     14          6           0       -1.492197    0.625125   -2.294953
     15          8           0        1.249373    0.082506   -0.712290
     16         14           0        2.010860   -1.362388   -0.293222
     17          6           0        2.819721   -1.256914    1.407146
     18          6           0        0.837014   -2.841171   -0.324583
     19          6           0        3.319948   -1.560870   -1.629412
     20          1           0        1.410354   -3.756880   -0.135897
     21          1           0        0.062315   -2.781829    0.446562
     22          1           0        0.345950   -2.955775   -1.296782
     23          1           0        3.909102   -2.469567   -1.462157
     24          1           0        2.864988   -1.634871   -2.622627
     25          1           0        4.010998   -0.711572   -1.639074
     26          1           0        3.464121   -0.375552    1.495161
     27          1           0        2.077220   -1.223864    2.210490
     28          1           0        3.445899   -2.142119    1.570595
     29          1           0       -1.820331    1.666681   -2.365477
     30          1           0       -0.604307    0.505647   -2.921694
     31          1           0       -2.279703   -0.000357   -2.721911
     32          1           0       -4.037753    0.510442   -1.201141
     33          1           0       -4.438048    0.144651    0.465167
     34          1           0       -3.161218   -1.854491   -1.507654
     35          1           0       -3.496442   -2.184268    0.197681
     36          1           0       -4.826557   -1.862616   -0.923749
     37          6           0        0.367633    2.283028   -0.788743
     38          6           0        1.551915    2.967962   -0.164887
     39          6           0        1.505695    4.134885    0.479826
     40          1           0       -0.535254    2.883958   -0.627244
     41          1           0        0.527564    2.215570   -1.870355
     42          1           0        2.505853    2.454909   -0.275658
     43          1           0        2.398284    4.591615    0.897417
     44          1           0        0.574057    4.682188    0.607136
 ---------------------------------------------------------------------

 SCF Done:  E(RmPW1PW91) =  -1064.38377513     A.U. after   12 cycles

      1  C    Isotropic =   105.8418   Anisotropy =    55.2472

      2  C    Isotropic =   139.8327   Anisotropy =    19.9899

      3  C    Isotropic =   105.5378   Anisotropy =    54.7622

      4  C    Isotropic =   142.5660   Anisotropy =    20.9814

      5  C    Isotropic =     8.2089   Anisotropy =   100.9508

      6  H    Isotropic =    28.0399   Anisotropy =     3.0590

      7  H    Isotropic =    30.0984   Anisotropy =     6.2230

      8  H    Isotropic =    29.6714   Anisotropy =     4.3565

      9  H    Isotropic =    29.7046   Anisotropy =     5.5328

     10  O    Isotropic =    79.9351   Anisotropy =   184.0003

     11  O    Isotropic =  -105.0449   Anisotropy =   577.4104

     12  C    Isotropic =   161.5191   Anisotropy =    18.9849

     13  C    Isotropic =   180.9846   Anisotropy =    12.4741

     14  C    Isotropic =   177.3430   Anisotropy =    11.1714

     15  O    Isotropic =   239.2854   Anisotropy =    23.5188

     16  Si   Isotropic =   332.7796   Anisotropy =    41.5750

     17  C    Isotropic =   185.8716   Anisotropy =    10.7811

     18  C    Isotropic =   185.9037   Anisotropy =     8.6129

     19  C    Isotropic =   186.5787   Anisotropy =    13.2240

     20  H    Isotropic =    32.2538   Anisotropy =    10.5396

     21  H    Isotropic =    31.8687   Anisotropy =     7.1900

     22  H    Isotropic =    32.0559   Anisotropy =     7.2543

     23  H    Isotropic =    32.3716   Anisotropy =    10.2123

     24  H    Isotropic =    31.9741   Anisotropy =     8.2726

     25  H    Isotropic =    31.9135   Anisotropy =     8.7392

     26  H    Isotropic =    31.9704   Anisotropy =     8.2941

     27  H    Isotropic =    31.4058   Anisotropy =     7.6458

     28  H    Isotropic =    32.2959   Anisotropy =    10.4236

     29  H    Isotropic =    31.3876   Anisotropy =     8.6370

     30  H    Isotropic =    30.8028   Anisotropy =     7.7781

     31  H    Isotropic =    31.1826   Anisotropy =     8.7978

     32  H    Isotropic =    30.5058   Anisotropy =     7.3699

     33  H    Isotropic =    30.1462   Anisotropy =     9.8193

     34  H    Isotropic =    31.2545   Anisotropy =     5.9591

     35  H    Isotropic =    30.8227   Anisotropy =     7.3762

     36  H    Isotropic =    31.2246   Anisotropy =    12.0598

     37  C    Isotropic =   140.2895   Anisotropy =    14.1217

     38  C    Isotropic =    45.2852   Anisotropy =   180.5058

     39  C    Isotropic =    65.8850   Anisotropy =   138.7829

     40  H    Isotropic =    30.1703   Anisotropy =     6.4430

     41  H    Isotropic =    29.4878   Anisotropy =     3.7315

     42  H    Isotropic =    25.6767   Anisotropy =     7.4013

     43  H    Isotropic =    26.7357   Anisotropy =     6.8939

     44  H    Isotropic =    26.8155   Anisotropy =     7.3675

 The electronic state is 1-A.
 Alpha  occ. eigenvalues --  -66.27216 -19.26059 -19.20581 -19.20069 -10.36897
 Alpha  occ. eigenvalues --  -10.32123 -10.30677 -10.25375 -10.25157 -10.24131
 Alpha  occ. eigenvalues --  -10.24078 -10.24050 -10.23047 -10.22856 -10.22266
 Alpha  occ. eigenvalues --  -10.20694 -10.20535 -10.20372  -5.32949  -3.66841
 Alpha  occ. eigenvalues --   -3.66541  -3.66524  -1.13490  -1.05127  -1.03878
 Alpha  occ. eigenvalues --   -0.85857  -0.83270  -0.80413  -0.77657  -0.73973
 Alpha  occ. eigenvalues --   -0.72515  -0.72366  -0.70080  -0.69898  -0.67205
 Alpha  occ. eigenvalues --   -0.62756  -0.62175  -0.58416  -0.56017  -0.54668
 Alpha  occ. eigenvalues --   -0.52408  -0.51118  -0.49168  -0.48504  -0.46298
 Alpha  occ. eigenvalues --   -0.45893  -0.45435  -0.44913  -0.44360  -0.43058
 Alpha  occ. eigenvalues --   -0.42896  -0.42623  -0.42235  -0.42027  -0.41059
 Alpha  occ. eigenvalues --   -0.40792  -0.40325  -0.39735  -0.39389  -0.38946
 Alpha  occ. eigenvalues --   -0.38279  -0.38015  -0.37709  -0.36535  -0.36186
 Alpha  occ. eigenvalues --   -0.35509  -0.35040  -0.33357  -0.32397  -0.31143
 Alpha  occ. eigenvalues --   -0.30211  -0.28804  -0.28380  -0.27226
 Alpha virt. eigenvalues --    0.00178   0.01193   0.03957   0.05069   0.05789
 Alpha virt. eigenvalues --    0.06861   0.07582   0.08259   0.08419   0.08777
 Alpha virt. eigenvalues --    0.10025   0.10430   0.10603   0.10898   0.11454

 Mulliken charges:
               1
     1  C   -0.014580
     2  C   -0.353922
     3  C    0.243021
     4  C   -0.698949
     5  C    0.506229
     6  H    0.241509
     7  H    0.297454
     8  H    0.297253
     9  H    0.292445
    10  O   -0.319278
    11  O   -0.381191
    12  C   -0.458649
    13  C   -0.675658
    14  C   -0.711080
    15  O   -0.626941
    16  Si   1.407677
    17  C   -1.081721
    18  C   -1.087377
    19  C   -1.039631
    20  H    0.244445
    21  H    0.256859
    22  H    0.242115
    23  H    0.232210
    24  H    0.239851
    25  H    0.240078
    26  H    0.241105
    27  H    0.255542
    28  H    0.239077
    29  H    0.240342
    30  H    0.254503
    31  H    0.247243
    32  H    0.242048
    33  H    0.242711
    34  H    0.227706
    35  H    0.242858
    36  H    0.233978
    37  C   -0.494981
    38  C   -0.186598
    39  C   -0.449573
    40  H    0.239743
    41  H    0.261792
    42  H    0.224625
    43  H    0.227295
    44  H    0.218412
 Sum of Mulliken charges =   0.00000

 Dipole moment (field-independent basis, Debye):
    X=             -1.0700    Y=              2.3766    Z=             -3.7995  Tot=              4.6076
 Quadrupole moment (field-independent basis, Debye-Ang):
   XX=           -112.1552   YY=           -116.1349   ZZ=           -131.8578
   XY=             -6.0155   XZ=              6.5813   YZ=              8.0498

 Normal termination of Gaussian 09 at Wed Feb  6 11:23:16 2019.
