 Gaussian 09, Revision D.01,
 Gaussian 09:  ES64L-G09RevD.01 24-Apr-2013

 ----------------------------------------------------------------------
 # mPW1PW91/6-311g(d) geom=checkpoint nmr=giao scrf=(solvent=chloroform
 )
 ----------------------------------------------------------------------

 -------------
 P_ng_2ginp006
 -------------
 Structure from the checkpoint file:  "/home/ke291/rds/hpc-work/06Feb0927IP1/P_ng_2ginp006.chk"
 Charge =  0 Multiplicity = 1

                         Standard orientation:
 ---------------------------------------------------------------------
 Center     Atomic      Atomic             Coordinates (Angstroms)
 Number     Number       Type             X           Y           Z
 ---------------------------------------------------------------------
      1          6           0       -2.356946    0.415601    0.118053
      2          6           0       -1.182014    0.203283   -0.853180
      3          6           0        0.126069    0.840925   -0.268746
      4          6           0        0.029220    0.887679    1.284466
      5          6           0       -0.834657   -0.187423    1.896075
      6          1           0       -2.450333    1.481190    0.369925
      7          1           0       -0.997846   -0.876098   -0.859273
      8          1           0        1.018544    0.860214    1.737187
      9          1           0       -0.423139    1.844699    1.573385
     10          8           0       -2.065373   -0.314088    1.351872
     11          8           0       -0.519231   -0.891147    2.834451
     12          6           0       -3.728378   -0.087872   -0.337633
     13          6           0       -3.801559   -1.583581   -0.662263
     14          6           0       -1.492011    0.623851   -2.295291
     15          8           0        1.249497    0.082608   -0.712095
     16         14           0        2.011375   -1.362068   -0.292960
     17          6           0        2.820564   -1.256267    1.407222
     18          6           0        0.837832   -2.841118   -0.323706
     19          6           0        3.320201   -1.560661   -1.629350
     20          1           0        0.346638   -2.956145   -1.295791
     21          1           0        1.411377   -3.756652   -0.134791
     22          1           0        0.063244   -2.781667    0.447538
     23          1           0        2.865165   -1.634852   -2.622507
     24          1           0        4.011481   -0.711565   -1.639253
     25          1           0        3.909173   -2.469474   -1.461935
     26          1           0        3.446504   -2.141648    1.570710
     27          1           0        3.465246   -0.375094    1.494992
     28          1           0        2.078230   -1.222945    2.210704
     29          1           0       -0.604070    0.503989   -2.921886
     30          1           0       -2.279508   -0.001820   -2.721973
     31          1           0       -1.820079    1.665388   -2.366397
     32          1           0       -4.037510    0.509495   -1.202186
     33          1           0       -4.438348    0.144761    0.464229
     34          1           0       -3.496633   -2.184294    0.198600
     35          1           0       -4.826373   -1.863441   -0.923512
     36          1           0       -3.160825   -1.855663   -1.506838
     37          6           0        0.367340    2.282931   -0.788954
     38          6           0        1.551458    2.968085   -0.165064
     39          6           0        1.505009    4.135083    0.479489
     40          1           0       -0.535646    2.883767   -0.627607
     41          1           0        0.527336    2.215325   -1.870542
     42          1           0        2.505461    2.455109   -0.275634
     43          1           0        2.397465    4.591992    0.897170
     44          1           0        0.573284    4.682291    0.606591
 ---------------------------------------------------------------------

 SCF Done:  E(RmPW1PW91) =  -1064.38377413     A.U. after   12 cycles

      1  C    Isotropic =   105.8450   Anisotropy =    55.2444

      2  C    Isotropic =   139.8304   Anisotropy =    19.9779

      3  C    Isotropic =   105.5295   Anisotropy =    54.7821

      4  C    Isotropic =   142.5600   Anisotropy =    20.9816

      5  C    Isotropic =     8.2112   Anisotropy =   100.9461

      6  H    Isotropic =    28.0398   Anisotropy =     3.0582

      7  H    Isotropic =    30.0988   Anisotropy =     6.2219

      8  H    Isotropic =    29.6712   Anisotropy =     4.3559

      9  H    Isotropic =    29.7042   Anisotropy =     5.5315

     10  O    Isotropic =    79.9480   Anisotropy =   183.9997

     11  O    Isotropic =  -105.0512   Anisotropy =   577.4315

     12  C    Isotropic =   161.5194   Anisotropy =    18.9819

     13  C    Isotropic =   180.9867   Anisotropy =    12.4725

     14  C    Isotropic =   177.3452   Anisotropy =    11.1757

     15  O    Isotropic =   239.2786   Anisotropy =    23.5150

     16  Si   Isotropic =   332.7837   Anisotropy =    41.5881

     17  C    Isotropic =   185.8733   Anisotropy =    10.7836

     18  C    Isotropic =   185.9049   Anisotropy =     8.6151

     19  C    Isotropic =   186.5787   Anisotropy =    13.2238

     20  H    Isotropic =    32.0560   Anisotropy =     7.2546

     21  H    Isotropic =    32.2539   Anisotropy =    10.5392

     22  H    Isotropic =    31.8690   Anisotropy =     7.1903

     23  H    Isotropic =    31.9741   Anisotropy =     8.2729

     24  H    Isotropic =    31.9133   Anisotropy =     8.7413

     25  H    Isotropic =    32.3718   Anisotropy =    10.2100

     26  H    Isotropic =    32.2959   Anisotropy =    10.4213

     27  H    Isotropic =    31.9702   Anisotropy =     8.2975

     28  H    Isotropic =    31.4071   Anisotropy =     7.6427

     29  H    Isotropic =    30.8030   Anisotropy =     7.7793

     30  H    Isotropic =    31.1827   Anisotropy =     8.7967

     31  H    Isotropic =    31.3877   Anisotropy =     8.6373

     32  H    Isotropic =    30.5058   Anisotropy =     7.3684

     33  H    Isotropic =    30.1464   Anisotropy =     9.8198

     34  H    Isotropic =    30.8225   Anisotropy =     7.3767

     35  H    Isotropic =    31.2248   Anisotropy =    12.0599

     36  H    Isotropic =    31.2548   Anisotropy =     5.9598

     37  C    Isotropic =   140.2941   Anisotropy =    14.1201

     38  C    Isotropic =    45.2876   Anisotropy =   180.5027

     39  C    Isotropic =    65.8841   Anisotropy =   138.7838

     40  H    Isotropic =    30.1703   Anisotropy =     6.4427

     41  H    Isotropic =    29.4882   Anisotropy =     3.7327

     42  H    Isotropic =    25.6766   Anisotropy =     7.4015

     43  H    Isotropic =    26.7356   Anisotropy =     6.8936

     44  H    Isotropic =    26.8154   Anisotropy =     7.3674

 The electronic state is 1-A.
 Alpha  occ. eigenvalues --  -66.27216 -19.26058 -19.20581 -19.20069 -10.36897
 Alpha  occ. eigenvalues --  -10.32124 -10.30677 -10.25376 -10.25157 -10.24131
 Alpha  occ. eigenvalues --  -10.24078 -10.24050 -10.23047 -10.22856 -10.22266
 Alpha  occ. eigenvalues --  -10.20694 -10.20535 -10.20373  -5.32949  -3.66841
 Alpha  occ. eigenvalues --   -3.66541  -3.66524  -1.13489  -1.05127  -1.03875
 Alpha  occ. eigenvalues --   -0.85857  -0.83271  -0.80413  -0.77657  -0.73974
 Alpha  occ. eigenvalues --   -0.72515  -0.72367  -0.70080  -0.69899  -0.67205
 Alpha  occ. eigenvalues --   -0.62755  -0.62175  -0.58416  -0.56016  -0.54667
 Alpha  occ. eigenvalues --   -0.52408  -0.51117  -0.49168  -0.48504  -0.46298
 Alpha  occ. eigenvalues --   -0.45893  -0.45435  -0.44913  -0.44361  -0.43057
 Alpha  occ. eigenvalues --   -0.42896  -0.42622  -0.42235  -0.42027  -0.41059
 Alpha  occ. eigenvalues --   -0.40792  -0.40324  -0.39735  -0.39389  -0.38946
 Alpha  occ. eigenvalues --   -0.38279  -0.38015  -0.37709  -0.36535  -0.36186
 Alpha  occ. eigenvalues --   -0.35509  -0.35039  -0.33357  -0.32398  -0.31143
 Alpha  occ. eigenvalues --   -0.30211  -0.28804  -0.28380  -0.27226
 Alpha virt. eigenvalues --    0.00178   0.01193   0.03956   0.05070   0.05789
 Alpha virt. eigenvalues --    0.06861   0.07582   0.08259   0.08418   0.08777
 Alpha virt. eigenvalues --    0.10025   0.10430   0.10603   0.10897   0.11454

 Mulliken charges:
               1
     1  C   -0.014523
     2  C   -0.354037
     3  C    0.243108
     4  C   -0.698930
     5  C    0.506228
     6  H    0.241504
     7  H    0.297453
     8  H    0.297243
     9  H    0.292433
    10  O   -0.319291
    11  O   -0.381184
    12  C   -0.458675
    13  C   -0.675647
    14  C   -0.711052
    15  O   -0.626997
    16  Si   1.407700
    17  C   -1.081654
    18  C   -1.087373
    19  C   -1.039639
    20  H    0.242112
    21  H    0.244444
    22  H    0.256855
    23  H    0.239859
    24  H    0.240084
    25  H    0.232194
    26  H    0.239067
    27  H    0.241106
    28  H    0.255501
    29  H    0.254495
    30  H    0.247254
    31  H    0.240339
    32  H    0.242051
    33  H    0.242708
    34  H    0.242859
    35  H    0.233978
    36  H    0.227704
    37  C   -0.494975
    38  C   -0.186602
    39  C   -0.449568
    40  H    0.239735
    41  H    0.261791
    42  H    0.224633
    43  H    0.227298
    44  H    0.218413
 Sum of Mulliken charges =   0.00000

 Dipole moment (field-independent basis, Debye):
    X=             -1.0687    Y=              2.3754    Z=             -3.8002  Tot=              4.6072
 Quadrupole moment (field-independent basis, Debye-Ang):
   XX=           -112.1557   YY=           -116.1330   ZZ=           -131.8581
   XY=             -6.0152   XZ=              6.5862   YZ=              8.0478

 Normal termination of Gaussian 09 at Wed Feb  6 11:20:50 2019.
