 Gaussian 09, Revision D.01,
 Gaussian 09:  ES64L-G09RevD.01 24-Apr-2013

 ----------------------------------------------------------------------
 # mPW1PW91/6-311g(d) geom=checkpoint nmr=giao scrf=(solvent=chloroform
 )
 ----------------------------------------------------------------------

 --------------------
 P_ng_correct1ginp011
 --------------------
 Structure from the checkpoint file:  "/home/ke291/rds/hpc-work/06Feb0927IP1/P_ng_correct1ginp011.chk"
 Charge =  0 Multiplicity = 1

                         Standard orientation:
 ---------------------------------------------------------------------
 Center     Atomic      Atomic             Coordinates (Angstroms)
 Number     Number       Type             X           Y           Z
 ---------------------------------------------------------------------
      1          6           0        2.466611    0.389048    0.070247
      2          6           0        1.134383    0.325576    0.825763
      3          6           0       -0.027489   -0.009585   -0.152912
      4          6           0        0.302249   -1.404543   -0.715606
      5          6           0        1.706875   -1.567350   -1.268200
      6          1           0        2.455583    1.265143   -0.589595
      7          1           0        1.168014   -0.531063    1.510757
      8          1           0        0.196515   -2.136783    0.093825
      9          1           0       -0.385023   -1.704845   -1.508693
     10          8           0        2.685465   -0.759305   -0.812743
     11          8           0        1.990992   -2.431668   -2.071639
     12          6           0        3.723711    0.472626    0.944033
     13          6           0        3.901676   -0.671686    1.946347
     14          6           0        0.924273    1.582474    1.682778
     15          8           0       -1.208632   -0.073484    0.640281
     16         14           0       -2.831128   -0.464915    0.413823
     17          6           0       -3.091900   -1.935532   -0.740815
     18          6           0       -3.431380   -0.891700    2.144581
     19          6           0       -3.798921    1.012482   -0.250394
     20          1           0       -2.909629   -1.769935    2.538838
     21          1           0       -3.261746   -0.061634    2.838293
     22          1           0       -4.504848   -1.111405    2.142185
     23          1           0       -4.865985    0.765274   -0.299637
     24          1           0       -3.692578    1.886954    0.400283
     25          1           0       -3.482111    1.302283   -1.257316
     26          1           0       -2.794196   -1.720483   -1.772470
     27          1           0       -2.547571   -2.824961   -0.408148
     28          1           0       -4.158627   -2.189110   -0.758658
     29          1           0        1.074617    2.501440    1.111622
     30          1           0       -0.091831    1.588778    2.081332
     31          1           0        1.615993    1.590707    2.530011
     32          1           0        3.713537    1.436913    1.463232
     33          1           0        4.582054    0.499963    0.263595
     34          1           0        3.876974   -1.642064    1.441638
     35          1           0        4.866821   -0.583772    2.453896
     36          1           0        3.124881   -0.669523    2.717436
     37          6           0       -0.209878    0.973118   -1.341931
     38          6           0       -0.509573    2.410893   -1.014364
     39          6           0        0.066377    3.455765   -1.611966
     40          1           0       -1.041147    0.568389   -1.937758
     41          1           0        0.667913    0.925147   -1.997123
     42          1           0       -1.278482    2.583671   -0.264677
     43          1           0       -0.213167    4.476382   -1.367767
     44          1           0        0.835141    3.329489   -2.371179
 ---------------------------------------------------------------------

 SCF Done:  E(RmPW1PW91) =  -1064.38197655     A.U. after   12 cycles

      1  C    Isotropic =   102.9931   Anisotropy =    61.0179

      2  C    Isotropic =   142.7746   Anisotropy =    20.5260

      3  C    Isotropic =   108.2415   Anisotropy =    55.1691

      4  C    Isotropic =   136.7307   Anisotropy =    34.8247

      5  C    Isotropic =    12.6884   Anisotropy =    89.3005

      6  H    Isotropic =    27.7512   Anisotropy =     2.8498

      7  H    Isotropic =    30.0097   Anisotropy =     5.1639

      8  H    Isotropic =    29.6990   Anisotropy =     3.9867

      9  H    Isotropic =    29.5251   Anisotropy =     4.1485

     10  O    Isotropic =    95.8012   Anisotropy =   160.9719

     11  O    Isotropic =  -104.3593   Anisotropy =   559.9838

     12  C    Isotropic =   160.2909   Anisotropy =    21.0896

     13  C    Isotropic =   181.4807   Anisotropy =    11.7861

     14  C    Isotropic =   176.3876   Anisotropy =    13.4187

     15  O    Isotropic =   244.5915   Anisotropy =    32.1354

     16  Si   Isotropic =   332.7633   Anisotropy =    43.8625

     17  C    Isotropic =   185.1235   Anisotropy =     8.5337

     18  C    Isotropic =   186.2598   Anisotropy =    12.9509

     19  C    Isotropic =   185.0516   Anisotropy =    10.3554

     20  H    Isotropic =    31.9640   Anisotropy =     8.2163

     21  H    Isotropic =    31.8461   Anisotropy =     8.1744

     22  H    Isotropic =    32.3317   Anisotropy =    10.2751

     23  H    Isotropic =    32.2056   Anisotropy =    10.2651

     24  H    Isotropic =    31.8111   Anisotropy =     7.8460

     25  H    Isotropic =    31.9043   Anisotropy =     6.5249

     26  H    Isotropic =    31.8499   Anisotropy =     6.6291

     27  H    Isotropic =    31.8521   Anisotropy =     7.4480

     28  H    Isotropic =    32.1588   Anisotropy =    10.3930

     29  H    Isotropic =    31.2292   Anisotropy =     7.9831

     30  H    Isotropic =    30.4857   Anisotropy =     6.7895

     31  H    Isotropic =    31.4229   Anisotropy =     9.7579

     32  H    Isotropic =    30.3906   Anisotropy =     6.8484

     33  H    Isotropic =    30.1475   Anisotropy =     9.4031

     34  H    Isotropic =    31.1483   Anisotropy =     7.5895

     35  H    Isotropic =    31.2303   Anisotropy =    12.1030

     36  H    Isotropic =    31.2456   Anisotropy =     6.7128

     37  C    Isotropic =   141.8503   Anisotropy =    31.9901

     38  C    Isotropic =    43.7277   Anisotropy =   184.5897

     39  C    Isotropic =    67.8259   Anisotropy =   139.0681

     40  H    Isotropic =    29.6057   Anisotropy =     4.1526

     41  H    Isotropic =    29.5471   Anisotropy =     5.0265

     42  H    Isotropic =    25.5568   Anisotropy =     6.5659

     43  H    Isotropic =    26.8775   Anisotropy =     7.0036

     44  H    Isotropic =    26.8008   Anisotropy =     7.1081

 The electronic state is 1-A.
 Alpha  occ. eigenvalues --  -66.27514 -19.25875 -19.20804 -19.19517 -10.36936
 Alpha  occ. eigenvalues --  -10.31822 -10.30455 -10.25098 -10.25042 -10.24665
 Alpha  occ. eigenvalues --  -10.24380 -10.23761 -10.22909 -10.22236 -10.22233
 Alpha  occ. eigenvalues --  -10.21063 -10.20850 -10.20690  -5.33241  -3.67131
 Alpha  occ. eigenvalues --   -3.66835  -3.66818  -1.13128  -1.04739  -1.04094
 Alpha  occ. eigenvalues --   -0.85925  -0.83101  -0.80829  -0.77489  -0.73955
 Alpha  occ. eigenvalues --   -0.72969  -0.71960  -0.70373  -0.70183  -0.67006
 Alpha  occ. eigenvalues --   -0.62766  -0.62580  -0.58863  -0.55756  -0.53098
 Alpha  occ. eigenvalues --   -0.52490  -0.51024  -0.49201  -0.48358  -0.47078
 Alpha  occ. eigenvalues --   -0.46324  -0.45460  -0.44781  -0.44199  -0.43849
 Alpha  occ. eigenvalues --   -0.42822  -0.42420  -0.42342  -0.41539  -0.40986
 Alpha  occ. eigenvalues --   -0.40773  -0.40610  -0.40099  -0.39779  -0.39072
 Alpha  occ. eigenvalues --   -0.37948  -0.37728  -0.37376  -0.36459  -0.36294
 Alpha  occ. eigenvalues --   -0.35537  -0.34288  -0.33494  -0.32137  -0.31068
 Alpha  occ. eigenvalues --   -0.30196  -0.29689  -0.28110  -0.27044
 Alpha virt. eigenvalues --    0.00498   0.00802   0.03769   0.05733   0.05865
 Alpha virt. eigenvalues --    0.06239   0.07353   0.08109   0.08687   0.09120
 Alpha virt. eigenvalues --    0.09265   0.09927   0.10516   0.10643   0.11181

 Mulliken charges:
               1
     1  C   -0.031691
     2  C   -0.306709
     3  C    0.197442
     4  C   -0.629178
     5  C    0.484178
     6  H    0.253808
     7  H    0.253575
     8  H    0.288487
     9  H    0.274672
    10  O   -0.328429
    11  O   -0.384504
    12  C   -0.446472
    13  C   -0.678963
    14  C   -0.693401
    15  O   -0.631514
    16  Si   1.407723
    17  C   -1.073984
    18  C   -1.039965
    19  C   -1.067034
    20  H    0.239681
    21  H    0.241402
    22  H    0.232113
    23  H    0.240800
    24  H    0.243724
    25  H    0.249696
    26  H    0.246394
    27  H    0.249042
    28  H    0.243720
    29  H    0.242757
    30  H    0.259517
    31  H    0.239709
    32  H    0.241364
    33  H    0.241535
    34  H    0.237247
    35  H    0.234695
    36  H    0.229411
    37  C   -0.517162
    38  C   -0.176726
    39  C   -0.455792
    40  H    0.255198
    41  H    0.250757
    42  H    0.233907
    43  H    0.226844
    44  H    0.222126
 Sum of Mulliken charges =   0.00000

 Dipole moment (field-independent basis, Debye):
    X=             -2.6984    Y=              3.1853    Z=              2.6889  Tot=              4.9657
 Quadrupole moment (field-independent basis, Debye-Ang):
   XX=           -118.0072   YY=           -124.6891   ZZ=           -125.2720
   XY=             11.7938   XZ=              9.5862   YZ=             -8.5574

 Normal termination of Gaussian 09 at Wed Feb  6 11:36:50 2019.
