 Gaussian 09, Revision D.01,
 Gaussian 09:  ES64L-G09RevD.01 24-Apr-2013

 ----------------------------------------------------------------------
 # mPW1PW91/6-311g(d) geom=checkpoint nmr=giao scrf=(solvent=chloroform
 )
 ----------------------------------------------------------------------

 -------------
 P_ng_3ginp007
 -------------
 Structure from the checkpoint file:  "/home/ke291/rds/hpc-work/06Feb0927IP1/P_ng_3ginp007.chk"
 Charge =  0 Multiplicity = 1

                         Standard orientation:
 ---------------------------------------------------------------------
 Center     Atomic      Atomic             Coordinates (Angstroms)
 Number     Number       Type             X           Y           Z
 ---------------------------------------------------------------------
      1          6           0        2.443338    0.346571    0.272099
      2          6           0        1.074265    0.321428    0.967763
      3          6           0       -0.041324    0.140935   -0.101173
      4          6           0        0.216452   -1.200027   -0.811066
      5          6           0        1.652797   -1.453763   -1.241170
      6          1           0        2.493636    1.219172   -0.389632
      7          1           0        0.936194    1.310283    1.419054
      8          1           0       -0.037290   -2.019589   -0.129930
      9          1           0       -0.411127   -1.321372   -1.697828
     10          8           0        2.651793   -0.816078   -0.593431
     11          8           0        1.936422   -2.269465   -2.093290
     12          6           0        3.649148    0.398612    1.208963
     13          6           0        4.975305    0.625819    0.476929
     14          6           0        0.991125   -0.720416    2.096393
     15          8           0       -1.284402    0.139829    0.587699
     16         14           0       -2.835125   -0.444564    0.299988
     17          6           0       -3.455866   -0.065174   -1.442577
     18          6           0       -2.916934   -2.308509    0.591374
     19          6           0       -3.892623    0.450528    1.571055
     20          1           0       -3.959709   -2.646289    0.564192
     21          1           0       -2.370574   -2.876137   -0.168918
     22          1           0       -2.508376   -2.577402    1.571438
     23          1           0       -3.854431    1.534227    1.420737
     24          1           0       -4.939803    0.136263    1.498428
     25          1           0       -3.550358    0.241019    2.589820
     26          1           0       -4.484173   -0.430341   -1.550370
     27          1           0       -3.465233    1.010540   -1.645170
     28          1           0       -2.856857   -0.551702   -2.219677
     29          1           0       -0.034191   -0.794739    2.461086
     30          1           0        1.314343   -1.713995    1.770280
     31          1           0        1.626814   -0.429879    2.936388
     32          1           0        3.695416   -0.530870    1.785748
     33          1           0        3.474938    1.209992    1.926710
     34          1           0        5.807935    0.657094    1.185941
     35          1           0        5.169530   -0.176399   -0.239768
     36          1           0        4.967402    1.574186   -0.071963
     37          6           0       -0.061550    1.282633   -1.161429
     38          6           0       -0.225959    2.676810   -0.621413
     39          6           0       -1.234844    3.493910   -0.927341
     40          1           0       -0.879451    1.064976   -1.855314
     41          1           0        0.859766    1.230881   -1.757835
     42          1           0        0.555443    3.043886    0.043278
     43          1           0       -1.294503    4.501462   -0.526396
     44          1           0       -2.034084    3.188196   -1.598397
 ---------------------------------------------------------------------

 SCF Done:  E(RmPW1PW91) =  -1064.38262355     A.U. after   12 cycles

      1  C    Isotropic =   103.5982   Anisotropy =    45.6465

      2  C    Isotropic =   146.0105   Anisotropy =    23.4392

      3  C    Isotropic =   107.3083   Anisotropy =    50.9302

      4  C    Isotropic =   143.9417   Anisotropy =    37.3189

      5  C    Isotropic =    13.1969   Anisotropy =    87.5996

      6  H    Isotropic =    27.7293   Anisotropy =     3.8943

      7  H    Isotropic =    30.0491   Anisotropy =     5.5121

      8  H    Isotropic =    29.3751   Anisotropy =     4.1486

      9  H    Isotropic =    29.7799   Anisotropy =     3.8594

     10  O    Isotropic =   109.9135   Anisotropy =   191.6395

     11  O    Isotropic =  -106.0169   Anisotropy =   570.7092

     12  C    Isotropic =   157.5340   Anisotropy =    20.0484

     13  C    Isotropic =   175.0945   Anisotropy =    22.7571

     14  C    Isotropic =   179.8112   Anisotropy =    12.2909

     15  O    Isotropic =   245.6019   Anisotropy =    27.5602

     16  Si   Isotropic =   333.5921   Anisotropy =    42.6217

     17  C    Isotropic =   185.0907   Anisotropy =     8.5066

     18  C    Isotropic =   185.3871   Anisotropy =    11.9161

     19  C    Isotropic =   187.1189   Anisotropy =    12.2588

     20  H    Isotropic =    32.2588   Anisotropy =    10.4577

     21  H    Isotropic =    31.9510   Anisotropy =     6.6277

     22  H    Isotropic =    31.9236   Anisotropy =     7.6768

     23  H    Isotropic =    31.9710   Anisotropy =     8.1832

     24  H    Isotropic =    32.4254   Anisotropy =    10.3296

     25  H    Isotropic =    31.9787   Anisotropy =     8.4179

     26  H    Isotropic =    32.1530   Anisotropy =    10.4469

     27  H    Isotropic =    31.7899   Anisotropy =     7.9903

     28  H    Isotropic =    31.8366   Anisotropy =     6.4438

     29  H    Isotropic =    30.7455   Anisotropy =     8.1580

     30  H    Isotropic =    31.4268   Anisotropy =     7.0426

     31  H    Isotropic =    31.1359   Anisotropy =    10.0800

     32  H    Isotropic =    30.2638   Anisotropy =     4.5456

     33  H    Isotropic =    30.6382   Anisotropy =     6.9979

     34  H    Isotropic =    30.9530   Anisotropy =    11.4770

     35  H    Isotropic =    30.5721   Anisotropy =     8.0179

     36  H    Isotropic =    31.1597   Anisotropy =     8.9599

     37  C    Isotropic =   141.4619   Anisotropy =    33.6231

     38  C    Isotropic =    47.7305   Anisotropy =   176.4478

     39  C    Isotropic =    64.2514   Anisotropy =   141.7172

     40  H    Isotropic =    29.7539   Anisotropy =     3.9628

     41  H    Isotropic =    29.5528   Anisotropy =     4.8821

     42  H    Isotropic =    25.8826   Anisotropy =     7.2809

     43  H    Isotropic =    26.6893   Anisotropy =     6.3845

     44  H    Isotropic =    26.7036   Anisotropy =     6.4332

 The electronic state is 1-A.
 Alpha  occ. eigenvalues --  -66.27370 -19.25982 -19.20569 -19.19727 -10.37141
 Alpha  occ. eigenvalues --  -10.31803 -10.30549 -10.25311 -10.25246 -10.24407
 Alpha  occ. eigenvalues --  -10.24378 -10.23862 -10.22991 -10.22374 -10.22135
 Alpha  occ. eigenvalues --  -10.21020 -10.20778 -10.20577  -5.33102  -3.66989
 Alpha  occ. eigenvalues --   -3.66696  -3.66681  -1.13231  -1.04920  -1.04037
 Alpha  occ. eigenvalues --   -0.85951  -0.83084  -0.80987  -0.77514  -0.74024
 Alpha  occ. eigenvalues --   -0.73221  -0.71362  -0.70305  -0.70102  -0.66634
 Alpha  occ. eigenvalues --   -0.63900  -0.62562  -0.58543  -0.54737  -0.53470
 Alpha  occ. eigenvalues --   -0.53028  -0.51136  -0.49874  -0.48236  -0.47493
 Alpha  occ. eigenvalues --   -0.46767  -0.45312  -0.44715  -0.44319  -0.43430
 Alpha  occ. eigenvalues --   -0.42610  -0.42543  -0.42361  -0.42012  -0.40800
 Alpha  occ. eigenvalues --   -0.40741  -0.40345  -0.39811  -0.39647  -0.39081
 Alpha  occ. eigenvalues --   -0.38580  -0.37435  -0.36927  -0.36677  -0.36349
 Alpha  occ. eigenvalues --   -0.35655  -0.34238  -0.33428  -0.32088  -0.31086
 Alpha  occ. eigenvalues --   -0.30393  -0.29463  -0.28201  -0.27310
 Alpha virt. eigenvalues --    0.00004   0.01223   0.03802   0.05157   0.06460
 Alpha virt. eigenvalues --    0.06738   0.07386   0.08075   0.08324   0.08637
 Alpha virt. eigenvalues --    0.08966   0.09750   0.10637   0.10910   0.11067

 Mulliken charges:
               1
     1  C   -0.051626
     2  C   -0.316113
     3  C    0.232594
     4  C   -0.667373
     5  C    0.479401
     6  H    0.255403
     7  H    0.256426
     8  H    0.306626
     9  H    0.269502
    10  O   -0.323770
    11  O   -0.380004
    12  C   -0.452221
    13  C   -0.664511
    14  C   -0.689129
    15  O   -0.636260
    16  Si   1.441944
    17  C   -1.086973
    18  C   -1.070625
    19  C   -1.040678
    20  H    0.239154
    21  H    0.243101
    22  H    0.244101
    23  H    0.242991
    24  H    0.231558
    25  H    0.240428
    26  H    0.242213
    27  H    0.250528
    28  H    0.244860
    29  H    0.265864
    30  H    0.231269
    31  H    0.243633
    32  H    0.244259
    33  H    0.236028
    34  H    0.230543
    35  H    0.239834
    36  H    0.222850
    37  C   -0.529406
    38  C   -0.146997
    39  C   -0.465050
    40  H    0.262478
    41  H    0.255477
    42  H    0.215082
    43  H    0.226339
    44  H    0.226251
 Sum of Mulliken charges =   0.00000

 Dipole moment (field-independent basis, Debye):
    X=             -2.2484    Y=              2.9505    Z=              2.7304  Tot=              4.6061
 Quadrupole moment (field-independent basis, Debye-Ang):
   XX=           -118.0142   YY=           -123.9430   ZZ=           -124.8342
   XY=             11.4748   XZ=             12.3509   YZ=             -7.4854

 Normal termination of Gaussian 09 at Wed Feb  6 11:29:50 2019.
